 Gaussian 09, Revision D.01,
 Gaussian 09:  ES64L-G09RevD.01 24-Apr-2013

 ------------------------------------------------------------
 #p opt freq n12sx/6-311+g(d,p) scrf=(iefpcm,solvent=ethanol)
 ------------------------------------------------------------

 -----
 TITLE
 -----
 Symbolic Z-matrix:
 Charge =  0 Multiplicity = 1

 SCF Done:  E(RN12SX) =  -959.073790495     A.U. after   15 cycles
 SCF Done:  E(RN12SX) =  -959.073268455     A.U. after   15 cycles
 SCF Done:  E(RN12SX) =  -959.073994410     A.U. after   13 cycles
 SCF Done:  E(RN12SX) =  -959.073558153     A.U. after   14 cycles
 SCF Done:  E(RN12SX) =  -959.073965666     A.U. after   14 cycles
 SCF Done:  E(RN12SX) =  -959.074143162     A.U. after   10 cycles
 SCF Done:  E(RN12SX) =  -959.074260770     A.U. after   12 cycles
 SCF Done:  E(RN12SX) =  -959.074312389     A.U. after   12 cycles
 SCF Done:  E(RN12SX) =  -959.074539451     A.U. after   12 cycles
 SCF Done:  E(RN12SX) =  -959.074590960     A.U. after   11 cycles
 SCF Done:  E(RN12SX) =  -959.074763475     A.U. after   11 cycles
 SCF Done:  E(RN12SX) =  -959.074776752     A.U. after   11 cycles
 SCF Done:  E(RN12SX) =  -959.074781586     A.U. after   11 cycles
 SCF Done:  E(RN12SX) =  -959.074785002     A.U. after   10 cycles
 SCF Done:  E(RN12SX) =  -959.074788600     A.U. after   10 cycles
 SCF Done:  E(RN12SX) =  -959.074788255     A.U. after   10 cycles
 SCF Done:  E(RN12SX) =  -959.074787794     A.U. after   10 cycles
 SCF Done:  E(RN12SX) =  -959.074788013     A.U. after    9 cycles
 SCF Done:  E(RN12SX) =  -959.074788114     A.U. after    9 cycles
 Optimization completed.
    -- Stationary point found.
 Normal termination of Gaussian 09 at Thu Dec 16 00:24:47 2021.

 ----------------------------------------------------------------------
 #P Geom=AllCheck Guess=TCheck SCRF=Check GenChk RN12SX/6-311+G(d,p) Fr
 eq
 ----------------------------------------------------------------------

 Structure from the checkpoint file:  "reag_NHC28_et.chk"
 -----
 TITLE
 -----
 Charge =  0 Multiplicity = 1

                         Standard orientation:
 ---------------------------------------------------------------------
 Center     Atomic      Atomic             Coordinates (Angstroms)
 Number     Number       Type             X           Y           Z
 ---------------------------------------------------------------------
      1          1           0        0.169104    0.001940    0.507492
      2          8           0       -0.807535    0.047608    0.714780
      3          6           0       -0.988728   -0.039538    2.106710
      4          1           0       -0.617228   -0.998768    2.485156
      5          1           0       -0.418902    0.743616    2.618811
      6          6           0       -5.506825    1.147026   -0.334029
      7          6           0       -3.446947   -0.585081   -1.366629
      8          6           0       -4.310150    1.704731   -1.086474
      9          1           0       -5.748507    1.723457    0.555191
     10          1           0       -6.395546    1.181549   -0.968513
     11          6           0       -3.835203    0.675570   -2.093884
     12          1           0       -3.253687   -1.408203   -2.047310
     13          1           0       -2.567358   -0.423225   -0.744675
     14          1           0       -4.584925    2.638538   -1.571737
     15          1           0       -3.502259    1.931869   -0.390267
     16          1           0       -2.965649    1.029865   -2.644833
     17          1           0       -4.620339    0.469024   -2.822780
     18          8           0       -4.489730   -1.074735   -0.490644
     19          8           0       -6.137381   -0.779566    0.909186
     20          6           0       -5.392957   -0.292460    0.091032
     21          6           0       -2.454039    0.100133    2.445086
     22          1           0       -2.608665    0.029433    3.520746
     23          1           0       -2.835575    1.063915    2.110099
     24          1           0       -3.037514   -0.683797    1.965105
     25          7           0        3.857232   -1.298112   -0.369798
     26          6           0        4.233455   -0.005496   -0.235228
     27          6           0        3.075752    0.738989    0.076349
     28          6           0        1.958475   -0.151895    0.157894
     29          7           0        2.498114   -1.337303   -0.096748
     30          6           0        5.489718    0.591806   -0.359636
     31          6           0        5.550182    1.956384   -0.177971
     32          6           0        4.408988    2.722320    0.121521
     33          6           0        3.176116    2.123726    0.249970
     34          6           0        4.687624   -2.472269   -0.442779
     35          6           0        1.803753   -2.602382   -0.187349
     36          1           0        6.376913    0.021286   -0.586933
     37          1           0        6.504968    2.453377   -0.267884
     38          1           0        4.510596    3.788783    0.253067
     39          1           0        2.295744    2.704460    0.483127
     40          1           0        5.652404   -2.174777   -0.838352
     41          1           0        4.832103   -2.923774    0.538021
     42          1           0        4.258894   -3.202811   -1.121160
     43          1           0        1.854086   -2.996662   -1.199461
     44          1           0        2.224632   -3.325848    0.505846
     45          1           0        0.771185   -2.411188    0.072987
 ---------------------------------------------------------------------

 SCF Done:  E(RN12SX) =  -959.074788114     A.U. after    2 cycles

 The electronic state is 1-A.
 Alpha  occ. eigenvalues --  -19.21669 -19.15500 -19.13177 -14.46316 -14.44875
 Alpha  occ. eigenvalues --  -10.36001 -10.27555 -10.27302 -10.26842 -10.26230
 Alpha  occ. eigenvalues --  -10.24889 -10.23683 -10.23584 -10.23436 -10.23354
 Alpha  occ. eigenvalues --  -10.22818 -10.22677 -10.22512 -10.22378 -10.22248
 Alpha  occ. eigenvalues --  -10.19784  -1.10518  -1.08022  -1.01565  -0.98178
 Alpha  occ. eigenvalues --   -0.89793  -0.86796  -0.82184  -0.80742  -0.76542
 Alpha  occ. eigenvalues --   -0.76283  -0.73737  -0.72289  -0.70816  -0.67709
 Alpha  occ. eigenvalues --   -0.63670  -0.62706  -0.61817  -0.59543  -0.57811
 Alpha  occ. eigenvalues --   -0.54182  -0.53490  -0.51134  -0.51116  -0.50964
 Alpha  occ. eigenvalues --   -0.49523  -0.49263  -0.48457  -0.47400  -0.45502
 Alpha  occ. eigenvalues --   -0.45037  -0.44972  -0.44632  -0.44286  -0.44185
 Alpha  occ. eigenvalues --   -0.42670  -0.42276  -0.41747  -0.41139  -0.40481
 Alpha  occ. eigenvalues --   -0.39635  -0.39031  -0.37295  -0.36682  -0.36187
 Alpha  occ. eigenvalues --   -0.35590  -0.35326  -0.35145  -0.34899  -0.34248
 Alpha  occ. eigenvalues --   -0.32369  -0.31615  -0.29554  -0.29341  -0.27608
 Alpha  occ. eigenvalues --   -0.25409  -0.24995  -0.22777  -0.22262
 Alpha virt. eigenvalues --   -0.05756  -0.01354  -0.01207  -0.00717  -0.00152
 Alpha virt. eigenvalues --    0.00175   0.00615   0.00872   0.01251   0.01624
 Alpha virt. eigenvalues --    0.02245   0.02504   0.02658   0.03208   0.03313

 Mulliken charges:
               1
     1  H    0.549835
     2  O   -0.548135
     3  C   -0.079857
     4  H    0.150579
     5  H    0.149659
     6  C   -0.376959
     7  C   -0.335604
     8  C   -0.188645
     9  H    0.219684
    10  H    0.229304
    11  C   -0.393476
    12  H    0.187129
    13  H    0.271229
    14  H    0.187822
    15  H    0.183613
    16  H    0.194025
    17  H    0.190115
    18  O   -0.101743
    19  O   -0.377725
    20  C    0.093450
    21  C   -0.659986
    22  H    0.165290
    23  H    0.162839
    24  H    0.162149
    25  N    0.036328
    26  C   -0.315353
    27  C    1.109556
    28  C    0.163991
    29  N    0.227045
    30  C   -0.560606
    31  C   -0.365796
    32  C   -0.211056
    33  C   -1.244198
    34  C   -0.364773
    35  C   -0.362845
    36  H    0.151421
    37  H    0.164001
    38  H    0.157567
    39  H    0.162418
    40  H    0.188927
    41  H    0.217752
    42  H    0.189746
    43  H    0.211275
    44  H    0.200152
    45  H    0.209855
 Sum of Mulliken charges =   0.00000

 Dipole moment (field-independent basis, Debye):
    X=             11.6813    Y=             -1.5321    Z=             -4.4317  Tot=             12.5873
 Quadrupole moment (field-independent basis, Debye-Ang):
   XX=           -129.0742   YY=           -108.0318   ZZ=           -125.1151
   XY=            -38.0873   XZ=             15.8381   YZ=              4.3512

  Exact polarizability: 311.276  13.864 316.438 -28.347   7.639 214.652
 Approx polarizability: 354.486  10.966 369.057 -30.573  13.100 245.895

                      1                      2                      3
                      A                      A                      A
 Frequencies --      9.3025                17.9761                20.0950
 Red. masses --      4.2975                 4.6958                 4.3309
 Frc consts  --      0.0002                 0.0009                 0.0010
 IR Inten    --      1.6123                 1.1851                 2.8777

                      4                      5                      6
                      A                      A                      A
 Frequencies --     27.1464                32.1647                37.2694
 Red. masses --      4.9059                 5.2070                 3.0830
 Frc consts  --      0.0021                 0.0032                 0.0025
 IR Inten    --      0.2832                 4.5012                 5.8232

                      7                      8                      9
                      A                      A                      A
 Frequencies --     47.7460                51.0553                59.8342
 Red. masses --      4.3941                 2.2036                 4.0493
 Frc consts  --      0.0059                 0.0034                 0.0085
 IR Inten    --     11.2782                 3.2623                 6.3864

                     10                     11                     12
                      A                      A                      A
 Frequencies --     76.9585                81.5927                97.1300
 Red. masses --      4.3876                 2.7201                 3.5866
 Frc consts  --      0.0153                 0.0107                 0.0199
 IR Inten    --      0.7099                 5.0009                 2.6374

                     13                     14                     15
                      A                      A                      A
 Frequencies --    110.7752               118.9993               156.3054
 Red. masses --      3.2067                 2.5390                 1.2952
 Frc consts  --      0.0232                 0.0212                 0.0186
 IR Inten    --      4.7715                 7.0180                 4.2640

                     16                     17                     18
                      A                      A                      A
 Frequencies --    160.9457               180.1179               194.3574
 Red. masses --      4.1366                 2.5889                 1.1036
 Frc consts  --      0.0631                 0.0495                 0.0246
 IR Inten    --      1.1404                12.4200                 0.5407

                     19                     20                     21
                      A                      A                      A
 Frequencies --    263.4607               275.0360               275.6294
 Red. masses --      4.8061                 2.7911                 1.1865
 Frc consts  --      0.1966                 0.1244                 0.0531
 IR Inten    --      3.3713                11.7557                 3.5387

                     22                     23                     24
                      A                      A                      A
 Frequencies --    292.7647               326.9853               332.2700
 Red. masses --      3.7479                 2.5461                 1.6896
 Frc consts  --      0.1893                 0.1604                 0.1099
 IR Inten    --      2.2858                 7.0300                 1.8379

                     25                     26                     27
                      A                      A                      A
 Frequencies --    420.1435               444.4963               449.2778
 Red. masses --      4.1899                 2.9715                 2.8171
 Frc consts  --      0.4358                 0.3459                 0.3350
 IR Inten    --      2.5091                 6.3913                 4.2240

                     28                     29                     30
                      A                      A                      A
 Frequencies --    471.0209               499.5563               511.4614
 Red. masses --      3.7408                 5.8118                 3.0012
 Frc consts  --      0.4890                 0.8545                 0.4626
 IR Inten    --      5.1232                 0.1799                 7.6626

                     31                     32                     33
                      A                      A                      A
 Frequencies --    559.5286               567.4017               575.2236
 Red. masses --      3.6870                 4.0539                 3.0078
 Frc consts  --      0.6801                 0.7690                 0.5864
 IR Inten    --      6.5015                 8.8988                11.2411

                     34                     35                     36
                      A                      A                      A
 Frequencies --    580.8874               616.9127               665.2922
 Red. masses --      5.2021                 5.8119                 2.5041
 Frc consts  --      1.0342                 1.3032                 0.6530
 IR Inten    --      3.4003                 2.6002                16.7953

                     37                     38                     39
                      A                      A                      A
 Frequencies --    680.4138               747.1602               766.7084
 Red. masses --      5.6215                 4.9450                 1.3199
 Frc consts  --      1.5334                 1.6265                 0.4572
 IR Inten    --      1.4187                 1.8715               130.3367

                     40                     41                     42
                      A                      A                      A
 Frequencies --    772.6701               785.4620               817.2734
 Red. masses --      4.2694                 3.8670                 1.0852
 Frc consts  --      1.5018                 1.4056                 0.4271
 IR Inten    --      8.4191                 0.7394                 3.6600

                     43                     44                     45
                      A                      A                      A
 Frequencies --    845.9039               874.0380               883.6554
 Red. masses --      1.5450                 1.5197                 3.2907
 Frc consts  --      0.6513                 0.6840                 1.5139
 IR Inten    --     14.3268                 0.4442                16.0782

                     46                     47                     48
                      A                      A                      A
 Frequencies --    905.8453               917.5669               934.0802
 Red. masses --      2.4507                 2.0768                 4.7065
 Frc consts  --      1.1848                 1.0302                 2.4194
 IR Inten    --      4.1027                11.7780                12.0060

                     49                     50                     51
                      A                      A                      A
 Frequencies --    948.7621               960.0623               982.6417
 Red. masses --      1.4420                 2.4593                 1.3646
 Frc consts  --      0.7647                 1.3356                 0.7763
 IR Inten    --     12.7891                31.1255                 1.9322

                     52                     53                     54
                      A                      A                      A
 Frequencies --    994.2206              1002.7669              1014.1814
 Red. masses --      1.1140                 2.4623                 1.3022
 Frc consts  --      0.6488                 1.4588                 0.7892
 IR Inten    --     95.2628                18.7156                 0.0282

                     55                     56                     57
                      A                      A                      A
 Frequencies --   1041.4142              1088.3651              1091.4640
 Red. masses --      2.0535                 1.4684                 1.9539
 Frc consts  --      1.3122                 1.0248                 1.3714
 IR Inten    --     21.6772                54.6695                62.3320

                     58                     59                     60
                      A                      A                      A
 Frequencies --   1093.1909              1118.7759              1129.4135
 Red. masses --      2.3568                 3.4089                 2.1736
 Frc consts  --      1.6595                 2.5139                 1.6336
 IR Inten    --     26.6665               108.2611                 6.6912

                     61                     62                     63
                      A                      A                      A
 Frequencies --   1129.4492              1140.1289              1142.3500
 Red. masses --      1.8957                 2.6700                 1.4643
 Frc consts  --      1.4248                 2.0449                 1.1258
 IR Inten    --     16.3034               100.4056                18.6484

                     64                     65                     66
                      A                      A                      A
 Frequencies --   1152.8411              1155.8328              1183.1993
 Red. masses --      1.3371                 1.3684                 1.2351
 Frc consts  --      1.0470                 1.0771                 1.0187
 IR Inten    --      1.9478                 6.0461                11.5982

                     67                     68                     69
                      A                      A                      A
 Frequencies --   1185.2262              1201.0881              1205.6312
 Red. masses --      1.5702                 1.8573                 2.3278
 Frc consts  --      1.2996                 1.5786                 1.9935
 IR Inten    --     10.0953                92.9894                21.6924

                     70                     71                     72
                      A                      A                      A
 Frequencies --   1222.0766              1260.6650              1282.6026
 Red. masses --      1.4015                 2.4266                 1.8977
 Frc consts  --      1.2332                 2.2722                 1.8394
 IR Inten    --     20.8859                52.4480               260.6836

                     73                     74                     75
                      A                      A                      A
 Frequencies --   1295.7063              1310.9990              1322.4707
 Red. masses --      1.2664                 1.0934                 4.7726
 Frc consts  --      1.2527                 1.1072                 4.9179
 IR Inten    --     26.5603                 0.6639                36.9919

                     76                     77                     78
                      A                      A                      A
 Frequencies --   1331.5251              1336.5265              1369.2550
 Red. masses --      1.2295                 1.8154                 1.5679
 Frc consts  --      1.2844                 1.9106                 1.7319
 IR Inten    --     76.0360                48.6470                22.7493

                     79                     80                     81
                      A                      A                      A
 Frequencies --   1377.3744              1383.3697              1396.1178
 Red. masses --      1.1812                 1.5594                 6.9410
 Frc consts  --      1.3203                 1.7583                 7.9711
 IR Inten    --     72.1497                47.6053               109.5508

                     82                     83                     84
                      A                      A                      A
 Frequencies --   1399.7604              1402.6681              1431.9602
 Red. masses --      1.5245                 1.2699                 2.4020
 Frc consts  --      1.7599                 1.4720                 2.9019
 IR Inten    --      0.8421                25.4730                31.9478

                     85                     86                     87
                      A                      A                      A
 Frequencies --   1448.4274              1450.5859              1464.0519
 Red. masses --      1.1286                 1.2964                 1.3763
 Frc consts  --      1.3950                 1.6072                 1.7381
 IR Inten    --     33.3070                 3.1796                20.6289

                     88                     89                     90
                      A                      A                      A
 Frequencies --   1470.2600              1480.5728              1481.1600
 Red. masses --      1.2426                 1.3445                 1.0492
 Frc consts  --      1.5826                 1.7364                 1.3562
 IR Inten    --     15.0458                65.7099                10.5861

                     91                     92                     93
                      A                      A                      A
 Frequencies --   1483.2714              1483.3539              1493.3946
 Red. masses --      1.0588                 1.0925                 1.1147
 Frc consts  --      1.3725                 1.4164                 1.4647
 IR Inten    --     10.1717                12.6005                43.2058

                     94                     95                     96
                      A                      A                      A
 Frequencies --   1499.0943              1503.5919              1508.9508
 Red. masses --      1.0459                 1.9105                 1.0953
 Frc consts  --      1.3848                 2.5448                 1.4694
 IR Inten    --      6.2194                52.5616                22.4031

                     97                     98                     99
                      A                      A                      A
 Frequencies --   1510.2305              1526.0486              1531.6738
 Red. masses --      1.4053                 1.1886                 1.5641
 Frc consts  --      1.8885                 1.6309                 2.1619
 IR Inten    --      1.3644                 7.4947                33.9036

                    100                    101                    102
                      A                      A                      A
 Frequencies --   1534.6846              1539.0676              1558.0585
 Red. masses --      1.4466                 1.1304                 3.2767
 Frc consts  --      2.0074                 1.5776                 4.6865
 IR Inten    --     25.9862                 6.8259                50.5363

                    103                    104                    105
                      A                      A                      A
 Frequencies --   1630.8785              1687.7238              1776.3478
 Red. masses --      6.3421                 7.1162                12.0449
 Frc consts  --      9.9387                11.9427                22.3928
 IR Inten    --      9.3260               108.4552               744.4691

                    106                    107                    108
                      A                      A                      A
 Frequencies --   2975.1286              3021.3463              3029.1672
 Red. masses --      1.0665                 1.0709                 1.1020
 Frc consts  --      5.5618                 5.7596                 5.9579
 IR Inten    --   2008.2041              1682.5517               218.3679

                    109                    110                    111
                      A                      A                      A
 Frequencies --   3067.4440              3075.0501              3076.4046
 Red. masses --      1.0362                 1.0664                 1.0698
 Frc consts  --      5.7445                 5.9411                 5.9653
 IR Inten    --      1.3319                33.1383                 6.7400

                    112                    113                    114
                      A                      A                      A
 Frequencies --   3078.3475              3087.9296              3091.4030
 Red. masses --      1.0403                 1.0621                 1.0357
 Frc consts  --      5.8082                 5.9667                 5.8315
 IR Inten    --     42.4129                40.6963                51.9473

                    115                    116                    117
                      A                      A                      A
 Frequencies --   3095.2463              3133.7816              3139.3964
 Red. masses --      1.0639                 1.0977                 1.1013
 Frc consts  --      6.0056                 6.3512                 6.3948
 IR Inten    --     30.3491                32.9072                55.7896

                    118                    119                    120
                      A                      A                      A
 Frequencies --   3142.2506              3148.6287              3149.9959
 Red. masses --      1.1022                 1.1020                 1.0961
 Frc consts  --      6.4120                 6.4371                 6.4082
 IR Inten    --     42.6443                50.7320                11.1003

                    121                    122                    123
                      A                      A                      A
 Frequencies --   3164.8875              3167.6125              3168.3068
 Red. masses --      1.0994                 1.1048                 1.1067
 Frc consts  --      6.4882                 6.5311                 6.5451
 IR Inten    --      4.6826                18.6713                21.3963

                    124                    125                    126
                      A                      A                      A
 Frequencies --   3200.0354              3217.0281              3221.5941
 Red. masses --      1.1033                 1.0866                 1.1025
 Frc consts  --      6.6568                 6.6255                 6.7414
 IR Inten    --      4.3657                 0.3340                 0.3944

                    127                    128                    129
                      A                      A                      A
 Frequencies --   3224.2733              3236.3819              3243.2061
 Red. masses --      1.0899                 1.0945                 1.0979
 Frc consts  --      6.6761                 6.7544                 6.8037
 IR Inten    --      9.0670                25.4637                12.7534

 - Thermochemistry -
 -------------------
 Temperature   298.150 Kelvin.  Pressure   1.00000 Atm.
 Atom     1 has atomic number  1 and mass   1.00783

 Molecular mass:   292.17869 amu.
 Principal axes and moments of inertia in atomic units:
                           1         2         3
     Eigenvalues --  3228.51469********************
           X            0.99992  -0.01254   0.00132
           Y            0.01254   0.99990   0.00579
           Z           -0.00139  -0.00577   0.99998
 This molecule is an asymmetric top.
 Rotational symmetry number  1.
 Warning -- assumption of classical behavior for rotation
           may cause significant error
 Rotational temperatures (Kelvin)      0.02683     0.00483     0.00458
 Rotational constants (GHZ):           0.55900     0.10069     0.09538
 Zero-point vibrational energy    1015858.4 (Joules/Mol)
                                  242.79597 (Kcal/Mol)
 Warning -- explicit consideration of  35 degrees of freedom as
           vibrations may cause significant error
 Vibrational temperatures:     13.38    25.86    28.91    39.06    46.28
          (Kelvin)             53.62    68.70    73.46    86.09   110.73
                              117.39   139.75   159.38   171.21   224.89
                              231.56   259.15   279.64   379.06   395.71
                              396.57   421.22   470.46   478.06   604.49
                              639.53   646.41   677.69   718.75   735.88
                              805.04   816.36   827.62   835.77   887.60
                              957.21   978.96  1075.00  1103.12  1111.70
                             1130.10  1175.87  1217.07  1257.54  1271.38
                             1303.31  1320.17  1343.93  1365.06  1381.31
                             1413.80  1430.46  1442.76  1459.18  1498.36
                             1565.91  1570.37  1572.86  1609.67  1624.97
                             1625.02  1640.39  1643.58  1658.68  1662.98
                             1702.36  1705.27  1728.10  1734.63  1758.29
                             1813.81  1845.38  1864.23  1886.23  1902.74
                             1915.77  1922.96  1970.05  1981.73  1990.36
                             2008.70  2013.94  2018.12  2060.27  2083.96
                             2087.07  2106.44  2115.37  2130.21  2131.06
                             2134.09  2134.21  2148.66  2156.86  2163.33
                             2171.04  2172.88  2195.64  2203.73  2208.07
                             2214.37  2241.70  2346.47  2428.26  2555.77
                             4280.54  4347.04  4358.29  4413.36  4424.31
                             4426.25  4429.05  4442.84  4447.83  4453.36
                             4508.81  4516.89  4520.99  4530.17  4532.14
                             4553.56  4557.48  4558.48  4604.13  4628.58
                             4635.15  4639.00  4656.43  4666.24

 Zero-point correction=                           0.386920 (Hartree/Particle)
 Thermal correction to Energy=                    0.410459
 Thermal correction to Enthalpy=                  0.411403
 Thermal correction to Gibbs Free Energy=         0.326407
 Sum of electronic and zero-point Energies=           -958.687868
 Sum of electronic and thermal Energies=              -958.664329
 Sum of electronic and thermal Enthalpies=            -958.663385
 Sum of electronic and thermal Free Energies=         -958.748381

                     E (Thermal)             CV                S
                      KCal/Mol        Cal/Mol-Kelvin    Cal/Mol-Kelvin
 Total                  257.567             82.343            178.890
 Electronic               0.000              0.000              0.000
 Translational            0.889              2.981             42.914
 Rotational               0.889              2.981             35.347
 Vibrational            255.789             76.381            100.628
 Vibration     1          0.593              1.987              8.155
 Vibration     2          0.593              1.986              6.846
 Vibration     3          0.593              1.986              6.625
 Vibration     4          0.593              1.984              6.028
 Vibration     5          0.594              1.983              5.691
 Vibration     6          0.594              1.982              5.399
 Vibration     7          0.595              1.978              4.909
 Vibration     8          0.595              1.977              4.776
 Vibration     9          0.597              1.973              4.463
 Vibration    10          0.599              1.965              3.967
 Vibration    11          0.600              1.962              3.852
 Vibration    12          0.603              1.951              3.511
 Vibration    13          0.607              1.941              3.255
 Vibration    14          0.609              1.933              3.117
 Vibration    15          0.620              1.896              2.594
 Vibration    16          0.622              1.890              2.539
 Vibration    17          0.629              1.867              2.327
 Vibration    18          0.635              1.848              2.186
 Vibration    19          0.670              1.740              1.639
 Vibration    20          0.677              1.719              1.564
 Vibration    21          0.677              1.718              1.561
 Vibration    22          0.688              1.687              1.458
 Vibration    23          0.711              1.622              1.275
 Vibration    24          0.714              1.611              1.249
 Vibration    25          0.783              1.426              0.891
 Vibration    26          0.804              1.373              0.813
 Vibration    27          0.808              1.362              0.798
 Vibration    28          0.828              1.314              0.735
 Vibration    29          0.855              1.251              0.659
 Vibration    30          0.867              1.225              0.630
 Vibration    31          0.915              1.119              0.525
 Vibration    32          0.923              1.102              0.509
 Vibration    33          0.932              1.085              0.494
 Vibration    34          0.938              1.073              0.484
 Vibration    35          0.977              0.996              0.421

 Normal termination of Gaussian 09 at Thu Dec 16 04:46:58 2021.
