 Gaussian 09, Revision D.01,
 Gaussian 09:  ES64L-G09RevD.01 24-Apr-2013

 ------------------------------------------------------------
 #p opt freq n12sx/6-311+g(d,p) scrf=(iefpcm,solvent=ethanol)
 ------------------------------------------------------------

 -----
 TITLE
 -----
 Symbolic Z-matrix:
 Charge =  0 Multiplicity = 1

 SCF Done:  E(RN12SX) =  -939.402527780     A.U. after   16 cycles
 SCF Done:  E(RN12SX) =  -939.402360731     A.U. after   15 cycles
 SCF Done:  E(RN12SX) =  -939.402841532     A.U. after   15 cycles
 SCF Done:  E(RN12SX) =  -939.402505770     A.U. after   13 cycles
 SCF Done:  E(RN12SX) =  -939.402998702     A.U. after    9 cycles
 SCF Done:  E(RN12SX) =  -939.402742822     A.U. after   12 cycles
 SCF Done:  E(RN12SX) =  -939.402997405     A.U. after    8 cycles
 SCF Done:  E(RN12SX) =  -939.402998794     A.U. after    5 cycles
 SCF Done:  E(RN12SX) =  -939.403164398     A.U. after   12 cycles
 SCF Done:  E(RN12SX) =  -939.402521436     A.U. after   15 cycles
 SCF Done:  E(RN12SX) =  -939.403478158     A.U. after    8 cycles
 SCF Done:  E(RN12SX) =  -939.403479158     A.U. after    9 cycles
 SCF Done:  E(RN12SX) =  -939.403479677     A.U. after    8 cycles
 SCF Done:  E(RN12SX) =  -939.403479754     A.U. after    8 cycles
 SCF Done:  E(RN12SX) =  -939.403479551     A.U. after    8 cycles
 SCF Done:  E(RN12SX) =  -939.403479451     A.U. after    8 cycles
 SCF Done:  E(RN12SX) =  -939.403479532     A.U. after    8 cycles
 SCF Done:  E(RN12SX) =  -939.403479426     A.U. after    8 cycles
 SCF Done:  E(RN12SX) =  -939.403479378     A.U. after    9 cycles
 Optimization completed.
    -- Stationary point found.
 Normal termination of Gaussian 09 at Sat Nov 27 00:00:48 2021.

 ----------------------------------------------------------------------
 #P Geom=AllCheck Guess=TCheck SCRF=Check GenChk RN12SX/6-311+G(d,p) Fr
 eq
 ----------------------------------------------------------------------

 Structure from the checkpoint file:  "reag_NHC26_et.chk"
 -----
 TITLE
 -----
 Charge =  0 Multiplicity = 1

                         Standard orientation:
 ---------------------------------------------------------------------
 Center     Atomic      Atomic             Coordinates (Angstroms)
 Number     Number       Type             X           Y           Z
 ---------------------------------------------------------------------
      1          1           0       -0.641312   -0.356758    0.362144
      2          8           0        0.329418   -0.536485    0.539569
      3          6           0        0.474400   -1.014441    1.852145
      4          1           0       -0.003443   -0.333442    2.565459
      5          1           0       -0.019898   -1.986702    1.967209
      6          6           0        5.310780   -0.748710   -0.414470
      7          6           0        2.993337    0.819649   -1.109638
      8          6           0        4.230243   -1.300690   -1.329039
      9          1           0        5.646751   -1.473880    0.322018
     10          1           0        6.192836   -0.479501   -1.000327
     11          6           0        3.593063   -0.153987   -2.090275
     12          1           0        2.674237    1.739335   -1.589781
     13          1           0        2.144060    0.380826   -0.587270
     14          1           0        4.661713   -2.035540   -2.004915
     15          1           0        3.468960   -1.814571   -0.741358
     16          1           0        2.798699   -0.504630   -2.746997
     17          1           0        4.335721    0.343525   -2.715813
     18          8           0        3.930297    1.246965   -0.092639
     19          8           0        5.588040    0.894806    1.282123
     20          6           0        4.947480    0.505623    0.333823
     21          6           0        1.939250   -1.153713    2.194602
     22          1           0        2.064009   -1.524888    3.210846
     23          1           0        2.427919   -1.852511    1.516788
     24          1           0        2.446225   -0.192948    2.118017
     25          7           0       -4.262933    1.313240    0.149582
     26          7           0       -4.606007    0.088205   -0.140242
     27          6           0       -3.532483   -0.749169   -0.170316
     28          6           0       -2.402287    0.005812    0.124451
     29          7           0       -2.958679    1.238177    0.304226
     30          6           0       -5.998663   -0.236768   -0.363534
     31          6           0       -1.779877    3.168688   -0.675166
     32          6           0       -2.237432    2.471481    0.589383
     33          6           0       -2.376488   -2.953522   -0.503828
     34          6           0       -3.693201   -2.198906   -0.467859
     35          1           0       -6.340667   -0.933688    0.395733
     36          1           0       -6.573753    0.678396   -0.306927
     37          1           0       -6.116213   -0.685063   -1.345068
     38          1           0       -1.235647    4.074243   -0.416599
     39          1           0       -1.119840    2.526158   -1.252921
     40          1           0       -2.629087    3.446148   -1.295750
     41          1           0       -2.899435    3.106631    1.170746
     42          1           0       -1.392299    2.195476    1.211168
     43          1           0       -2.553777   -4.007158   -0.707172
     44          1           0       -1.721119   -2.561974   -1.278147
     45          1           0       -1.850856   -2.871776    0.444705
     46          1           0       -4.352420   -2.647894    0.278908
     47          1           0       -4.208809   -2.315538   -1.423745
 ---------------------------------------------------------------------

 SCF Done:  E(RN12SX) =  -939.403479378     A.U. after    1 cycles

 The electronic state is 1-A.
 Alpha  occ. eigenvalues --  -19.21646 -19.15496 -19.12864 -14.47463 -14.45992
 Alpha  occ. eigenvalues --  -14.43782 -10.35995 -10.27263 -10.26893 -10.26409
 Alpha  occ. eigenvalues --  -10.26342 -10.24799 -10.23356 -10.23208 -10.22405
 Alpha  occ. eigenvalues --  -10.22248 -10.21402 -10.21357 -10.20698 -10.19791
 Alpha  occ. eigenvalues --   -1.13934  -1.10496  -1.01548  -0.97909  -0.96200
 Alpha  occ. eigenvalues --   -0.83868  -0.82186  -0.80897  -0.76558  -0.76537
 Alpha  occ. eigenvalues --   -0.73683  -0.73619  -0.67698  -0.67108  -0.64818
 Alpha  occ. eigenvalues --   -0.62715  -0.60897  -0.59410  -0.57587  -0.54152
 Alpha  occ. eigenvalues --   -0.52595  -0.51849  -0.51117  -0.49368  -0.48442
 Alpha  occ. eigenvalues --   -0.47948  -0.47395  -0.45795  -0.45423  -0.45052
 Alpha  occ. eigenvalues --   -0.44924  -0.44360  -0.44182  -0.42411  -0.42263
 Alpha  occ. eigenvalues --   -0.42003  -0.39632  -0.39566  -0.38979  -0.38877
 Alpha  occ. eigenvalues --   -0.37767  -0.37286  -0.36168  -0.36070  -0.35400
 Alpha  occ. eigenvalues --   -0.35190  -0.34908  -0.34876  -0.34356  -0.34225
 Alpha  occ. eigenvalues --   -0.32350  -0.31509  -0.29812  -0.29277  -0.27604
 Alpha  occ. eigenvalues --   -0.24827  -0.24722  -0.22521
 Alpha virt. eigenvalues --   -0.04243  -0.01350  -0.00786  -0.00197   0.00285
 Alpha virt. eigenvalues --    0.00511   0.00964   0.01608   0.01782   0.02438
 Alpha virt. eigenvalues --    0.02644   0.02689   0.03152   0.03441   0.03643

 Mulliken charges:
               1
     1  H    0.557200
     2  O   -0.518448
     3  C   -0.126161
     4  H    0.149393
     5  H    0.143964
     6  C   -0.361962
     7  C   -0.347491
     8  C   -0.191188
     9  H    0.217376
    10  H    0.230021
    11  C   -0.401488
    12  H    0.187917
    13  H    0.280203
    14  H    0.188460
    15  H    0.179300
    16  H    0.196367
    17  H    0.189967
    18  O   -0.106597
    19  O   -0.378933
    20  C    0.097351
    21  C   -0.622035
    22  H    0.163556
    23  H    0.157491
    24  H    0.163020
    25  N   -0.265601
    26  N    0.259442
    27  C    0.144951
    28  C   -1.173588
    29  N    0.384508
    30  C   -0.256633
    31  C   -0.552159
    32  C   -0.148270
    33  C   -0.636324
    34  C   -0.211130
    35  H    0.206157
    36  H    0.209487
    37  H    0.198852
    38  H    0.181469
    39  H    0.173541
    40  H    0.169601
    41  H    0.187764
    42  H    0.191986
    43  H    0.166103
    44  H    0.176024
    45  H    0.163629
    46  H    0.193980
    47  H    0.188923
 Sum of Mulliken charges =   0.00000

 Dipole moment (field-independent basis, Debye):
    X=            -11.1407    Y=             -3.1483    Z=             -4.9579  Tot=             12.5939
 Quadrupole moment (field-independent basis, Debye-Ang):
   XX=           -108.4229   YY=           -116.5406   ZZ=           -121.2600
   XY=             -9.4913   XZ=            -20.1405   YZ=             -2.6915

  Exact polarizability: 274.263  -0.959 260.742  18.643   9.576 221.321
 Approx polarizability: 299.074  -4.174 292.725  17.803  12.097 250.695

                      1                      2                      3
                      A                      A                      A
 Frequencies --      3.8448                 8.3626                19.3614
 Red. masses --      3.6672                 2.6925                 4.3891
 Frc consts  --      0.0000                 0.0001                 0.0010
 IR Inten    --      0.5674                 0.2872                 0.5680

                      4                      5                      6
                      A                      A                      A
 Frequencies --     19.7158                25.3222                30.5496
 Red. masses --      3.8556                 3.1191                 5.0029
 Frc consts  --      0.0009                 0.0012                 0.0028
 IR Inten    --      3.5165                 1.2963                 4.1477

                      7                      8                      9
                      A                      A                      A
 Frequencies --     44.1146                45.1045                47.0289
 Red. masses --      3.9040                 2.5534                 2.5827
 Frc consts  --      0.0045                 0.0031                 0.0034
 IR Inten    --      3.6806                 4.3500                 2.6687

                     10                     11                     12
                      A                      A                      A
 Frequencies --     64.0704                66.2064                69.1164
 Red. masses --      2.7572                 1.1559                 3.5608
 Frc consts  --      0.0067                 0.0030                 0.0100
 IR Inten    --      0.6364                 0.6879                 5.2429

                     13                     14                     15
                      A                      A                      A
 Frequencies --     84.7643                96.8527               112.6604
 Red. masses --      3.9953                 2.8830                 3.0994
 Frc consts  --      0.0169                 0.0159                 0.0232
 IR Inten    --      5.8291                 1.5029                 4.6822

                     16                     17                     18
                      A                      A                      A
 Frequencies --    119.3039               159.1786               173.6563
 Red. masses --      3.3842                 3.2995                 2.5311
 Frc consts  --      0.0284                 0.0493                 0.0450
 IR Inten    --      9.2993                 0.3249                 9.1487

                     19                     20                     21
                      A                      A                      A
 Frequencies --    179.9044               219.4775               224.2899
 Red. masses --      2.8497                 1.3333                 1.6801
 Frc consts  --      0.0543                 0.0378                 0.0498
 IR Inten    --     10.1961                 2.2361                 0.9871

                     22                     23                     24
                      A                      A                      A
 Frequencies --    250.9267               278.4004               287.0113
 Red. masses --      3.0611                 1.1215                 2.1726
 Frc consts  --      0.1136                 0.0512                 0.1054
 IR Inten    --      0.6651                 1.6407                 5.2258

                     25                     26                     27
                      A                      A                      A
 Frequencies --    298.3113               330.5637               370.2501
 Red. masses --      1.6688                 1.6809                 2.6703
 Frc consts  --      0.0875                 0.1082                 0.2157
 IR Inten    --      4.3045                 1.7195                11.2031

                     28                     29                     30
                      A                      A                      A
 Frequencies --    419.0501               426.2542               449.1476
 Red. masses --      4.1117                 4.0126                 2.8460
 Frc consts  --      0.4254                 0.4295                 0.3383
 IR Inten    --      2.3670                 3.8468                 3.8335

                     31                     32                     33
                      A                      A                      A
 Frequencies --    470.6564               511.3321               547.4610
 Red. masses --      3.7395                 2.9432                 3.4948
 Frc consts  --      0.4881                 0.4534                 0.6171
 IR Inten    --      4.5918                 7.3319                 1.9975

                     34                     35                     36
                      A                      A                      A
 Frequencies --    575.8193               613.1514               661.5257
 Red. masses --      3.0576                 3.2329                 4.2253
 Frc consts  --      0.5973                 0.7161                 1.0894
 IR Inten    --     12.0240                 7.1557                19.6649

                     37                     38                     39
                      A                      A                      A
 Frequencies --    665.8868               674.7909               723.6008
 Red. masses --      2.5261                 3.8425                 7.6893
 Frc consts  --      0.6599                 1.0309                 2.3721
 IR Inten    --     16.7496                 0.2931                 1.0288

                     40                     41                     42
                      A                      A                      A
 Frequencies --    772.5994               802.0332               806.9948
 Red. masses --      4.2421                 1.1768                 1.3156
 Frc consts  --      1.4919                 0.4460                 0.5048
 IR Inten    --      8.1952                 1.0640                 8.0398

                     43                     44                     45
                      A                      A                      A
 Frequencies --    816.1890               827.8100               844.9958
 Red. masses --      1.0944                 3.0551                 1.5490
 Frc consts  --      0.4295                 1.2335                 0.6516
 IR Inten    --      3.1572                12.8263                14.5912

                     46                     47                     48
                      A                      A                      A
 Frequencies --    906.9127               917.8921               946.5101
 Red. masses --      2.4354                 2.0331                 1.4413
 Frc consts  --      1.1802                 1.0092                 0.7607
 IR Inten    --      4.1780                10.2245                11.5710

                     49                     50                     51
                      A                      A                      A
 Frequencies --    960.7001               988.4042              1003.2784
 Red. masses --      2.4873                 2.0601                 2.4604
 Frc consts  --      1.3525                 1.1858                 1.4591
 IR Inten    --     32.6647                 4.7787                18.7997

                     52                     53                     54
                      A                      A                      A
 Frequencies --   1005.6198              1031.5927              1075.3419
 Red. masses --      1.1518                 1.8302                 2.0555
 Frc consts  --      0.6862                 1.1475                 1.4004
 IR Inten    --     32.9459                54.9109                82.9496

                     55                     56                     57
                      A                      A                      A
 Frequencies --   1087.1118              1091.2369              1093.8954
 Red. masses --      1.4596                 2.8322                 2.4952
 Frc consts  --      1.0163                 1.9871                 1.7592
 IR Inten    --     51.6757                15.3865                20.3582

                     58                     59                     60
                      A                      A                      A
 Frequencies --   1102.7312              1111.7118              1116.7193
 Red. masses --      2.4483                 1.5359                 2.0670
 Frc consts  --      1.7541                 1.1184                 1.5187
 IR Inten    --     16.3820                 1.8455                24.7394

                     61                     62                     63
                      A                      A                      A
 Frequencies --   1120.3586              1127.7551              1134.5661
 Red. masses --      3.1876                 1.9552                 1.9303
 Frc consts  --      2.3574                 1.4651                 1.4640
 IR Inten    --    101.0926                24.7589                18.9116

                     64                     65                     66
                      A                      A                      A
 Frequencies --   1143.0888              1153.5324              1185.0532
 Red. masses --      2.9854                 1.3642                 1.5753
 Frc consts  --      2.2984                 1.0695                 1.3034
 IR Inten    --    110.4165                 0.7931                11.0644

                     67                     68                     69
                      A                      A                      A
 Frequencies --   1196.3038              1200.3582              1221.1931
 Red. masses --      3.5655                 1.8686                 1.3943
 Frc consts  --      3.0064                 1.5863                 1.2251
 IR Inten    --      0.7314                91.0903                21.5439

                     70                     71                     72
                      A                      A                      A
 Frequencies --   1270.3202              1282.3058              1295.1054
 Red. masses --      1.7983                 1.9561                 1.2493
 Frc consts  --      1.7098                 1.8951                 1.2346
 IR Inten    --     60.6602               272.6434                17.7002

                     73                     74                     75
                      A                      A                      A
 Frequencies --   1301.6158              1309.7292              1333.6338
 Red. masses --      1.1422                 1.0940                 1.2441
 Frc consts  --      1.1401                 1.1057                 1.3037
 IR Inten    --      0.1782                 0.4003                79.6284

                     76                     77                     78
                      A                      A                      A
 Frequencies --   1360.8324              1366.8623              1369.8769
 Red. masses --      2.1976                 2.5673                 1.5705
 Frc consts  --      2.3978                 2.8260                 1.7364
 IR Inten    --    106.5097                16.2304                24.2393

                     79                     80                     81
                      A                      A                      A
 Frequencies --   1379.1820              1382.3497              1389.6716
 Red. masses --      1.1922                 1.5626                 1.3232
 Frc consts  --      1.3361                 1.7593                 1.5056
 IR Inten    --     66.1129                49.4963                13.0319

                     82                     83                     84
                      A                      A                      A
 Frequencies --   1399.8086              1401.7217              1402.6164
 Red. masses --      1.5130                 1.9349                 1.4684
 Frc consts  --      1.7467                 2.2399                 1.7021
 IR Inten    --      1.4952                26.5706                47.2963

                     85                     86                     87
                      A                      A                      A
 Frequencies --   1410.5942              1416.6808              1420.0395
 Red. masses --      1.4764                 1.4781                 2.3880
 Frc consts  --      1.7309                 1.7479                 2.8372
 IR Inten    --     10.0589                 2.8916                 1.3869

                     88                     89                     90
                      A                      A                      A
 Frequencies --   1449.0304              1452.3830              1466.8026
 Red. masses --      1.1046                 1.4872                 1.3940
 Frc consts  --      1.3665                 1.8484                 1.7671
 IR Inten    --     26.1138                 0.2067                21.4790

                     91                     92                     93
                      A                      A                      A
 Frequencies --   1473.3199              1480.3092              1480.9664
 Red. masses --      1.1559                 1.0423                 1.0549
 Frc consts  --      1.4784                 1.3456                 1.3632
 IR Inten    --     15.3964                 8.1999                15.5336

                     94                     95                     96
                      A                      A                      A
 Frequencies --   1481.4889              1485.6165              1486.5306
 Red. masses --      1.1069                 1.0418                 1.0921
 Frc consts  --      1.4314                 1.3547                 1.4218
 IR Inten    --     11.6345                18.5299                12.2198

                     97                     98                     99
                      A                      A                      A
 Frequencies --   1486.9859              1492.6799              1495.3176
 Red. masses --      1.9653                 1.0529                 1.1599
 Frc consts  --      2.5604                 1.3822                 1.5280
 IR Inten    --     15.0358                11.8916                 1.1887

                    100                    101                    102
                      A                      A                      A
 Frequencies --   1495.3830              1502.5572              1505.8654
 Red. masses --      1.0748                 1.0734                 1.0933
 Frc consts  --      1.4161                 1.4278                 1.4607
 IR Inten    --      9.9229                16.4403                26.7200

                    103                    104                    105
                      A                      A                      A
 Frequencies --   1506.2571              1526.9874              1535.2117
 Red. masses --      1.2934                 1.1258                 1.1279
 Frc consts  --      1.7289                 1.5466                 1.5662
 IR Inten    --      2.4667                 4.3805                30.8575

                    106                    107                    108
                      A                      A                      A
 Frequencies --   1539.3184              1563.8664              1776.1037
 Red. masses --      1.1564                 4.4815                12.0608
 Frc consts  --      1.6144                 6.4577                22.4162
 IR Inten    --      5.1336                51.0985               745.8418

                    109                    110                    111
                      A                      A                      A
 Frequencies --   2923.3446              3003.5602              3022.8663
 Red. masses --      1.0757                 1.0632                 1.1015
 Frc consts  --      5.4163                 5.6512                 5.9300
 IR Inten    --   2996.7856               561.5572               134.1659

                    112                    113                    114
                      A                      A                      A
 Frequencies --   3055.8213              3067.0420              3076.0205
 Red. masses --      1.0605                 1.0359                 1.0703
 Frc consts  --      5.8345                 5.7410                 5.9667
 IR Inten    --     25.2245                11.2853                 4.2803

                    115                    116                    117
                      A                      A                      A
 Frequencies --   3077.7569              3080.7488              3082.7075
 Red. masses --      1.0662                 1.0352                 1.0355
 Frc consts  --      5.9505                 5.7885                 5.7977
 IR Inten    --     29.5224                19.9421                34.1313

                    118                    119                    120
                      A                      A                      A
 Frequencies --   3084.7412              3085.1177              3097.2175
 Red. masses --      1.1010                 1.0614                 1.0637
 Frc consts  --      6.1729                 5.9521                 6.0117
 IR Inten    --     15.0145                49.6249                21.9018

                    121                    122                    123
                      A                      A                      A
 Frequencies --   3105.9397              3126.1155              3133.5887
 Red. masses --      1.0336                 1.0611                 1.0979
 Frc consts  --      5.8749                 6.1095                 6.3518
 IR Inten    --     15.0178                20.1352                29.7676

                    124                    125                    126
                      A                      A                      A
 Frequencies --   3137.6898              3143.0289              3146.6940
 Red. masses --      1.1020                 1.1028                 1.1017
 Frc consts  --      6.3920                 6.4188                 6.4270
 IR Inten    --     53.1488                50.1053                49.5603

                    127                    128                    129
                      A                      A                      A
 Frequencies --   3151.0724              3158.0479              3160.3678
 Red. masses --      1.0954                 1.1036                 1.1028
 Frc consts  --      6.4080                 6.4851                 6.4896
 IR Inten    --     11.5248                14.1585                39.9442

                    130                    131                    132
                      A                      A                      A
 Frequencies --   3161.8292              3165.5565              3168.6335
 Red. masses --      1.1030                 1.1015                 1.1070
 Frc consts  --      6.4966                 6.5036                 6.5482
 IR Inten    --     34.4558                31.1522                21.8618

                    133                    134                    135
                      A                      A                      A
 Frequencies --   3186.2683              3188.3610              3224.6852
 Red. masses --      1.1061                 1.1074                 1.1049
 Frc consts  --      6.6161                 6.6330                 6.7692
 IR Inten    --      4.9163                14.8856                 1.1119

 - Thermochemistry -
 -------------------
 Temperature   298.150 Kelvin.  Pressure   1.00000 Atm.
 Atom     1 has atomic number  1 and mass   1.00783

 Molecular mass:   285.20524 amu.
 Principal axes and moments of inertia in atomic units:
                           1         2         3
     Eigenvalues --  3365.44543********************
           X            0.99999  -0.00345  -0.00271
           Y            0.00341   0.99987  -0.01569
           Z            0.00276   0.01568   0.99987
 This molecule is an asymmetric top.
 Rotational symmetry number  1.
 Warning -- assumption of classical behavior for rotation
           may cause significant error
 Rotational temperatures (Kelvin)      0.02574     0.00575     0.00533
 Rotational constants (GHZ):           0.53626     0.11983     0.11110
 Zero-point vibrational energy    1084715.5 (Joules/Mol)
                                  259.25322 (Kcal/Mol)
 Warning -- explicit consideration of  35 degrees of freedom as
           vibrations may cause significant error
 Vibrational temperatures:      5.53    12.03    27.86    28.37    36.43
          (Kelvin)             43.95    63.47    64.90    67.66    92.18
                               95.26    99.44   121.96   139.35   162.09
                              171.65   229.02   249.85   258.84   315.78
                              322.70   361.03   400.56   412.94   429.20
                              475.61   532.71   602.92   613.28   646.22
                              677.17   735.69   787.67   828.47   882.19
                              951.79   958.06   970.87  1041.10  1111.60
                             1153.95  1161.08  1174.31  1191.03  1215.76
                             1304.84  1320.64  1361.82  1382.23  1422.09
                             1443.49  1446.86  1484.23  1547.18  1564.11
                             1570.04  1573.87  1586.58  1599.50  1606.71
                             1611.94  1622.59  1632.39  1644.65  1659.67
                             1705.03  1721.21  1727.05  1757.02  1827.71
                             1844.95  1863.37  1872.73  1884.41  1918.80
                             1957.93  1966.61  1970.94  1984.33  1988.89
                             1999.42  2014.01  2016.76  2018.05  2029.53
                             2038.29  2043.12  2084.83  2089.65  2110.40
                             2119.78  2129.83  2130.78  2131.53  2137.47
                             2138.78  2139.44  2147.63  2151.43  2151.52
                             2161.84  2166.60  2167.17  2196.99  2208.82
                             2214.73  2250.05  2555.41  4206.04  4321.45
                             4349.22  4396.64  4412.78  4425.70  4428.20
                             4432.50  4435.32  4438.25  4438.79  4456.20
                             4468.75  4497.78  4508.53  4514.43  4522.11
                             4527.39  4533.68  4543.72  4547.06  4549.16
                             4554.52  4558.95  4584.32  4587.33  4639.60

 Zero-point correction=                           0.413146 (Hartree/Particle)
 Thermal correction to Energy=                    0.438353
 Thermal correction to Enthalpy=                  0.439297
 Thermal correction to Gibbs Free Energy=         0.347643
 Sum of electronic and zero-point Energies=           -938.990333
 Sum of electronic and thermal Energies=              -938.965127
 Sum of electronic and thermal Enthalpies=            -938.964183
 Sum of electronic and thermal Free Energies=         -939.055836

                     E (Thermal)             CV                S
                      KCal/Mol        Cal/Mol-Kelvin    Cal/Mol-Kelvin
 Total                  275.070             85.111            192.901
 Electronic               0.000              0.000              0.000
 Translational            0.889              2.981             42.842
 Rotational               0.889              2.981             35.064
 Vibrational            273.293             79.150            114.995
 Vibration     1          0.593              1.987              9.910
 Vibration     2          0.593              1.987              8.366
 Vibration     3          0.593              1.986              6.699
 Vibration     4          0.593              1.986              6.663
 Vibration     5          0.593              1.985              6.166
 Vibration     6          0.594              1.984              5.793
 Vibration     7          0.595              1.980              5.065
 Vibration     8          0.595              1.979              5.021
 Vibration     9          0.595              1.979              4.939
 Vibration    10          0.597              1.971              4.328
 Vibration    11          0.598              1.970              4.263
 Vibration    12          0.598              1.969              4.178
 Vibration    13          0.601              1.960              3.777
 Vibration    14          0.603              1.951              3.517
 Vibration    15          0.607              1.939              3.223
 Vibration    16          0.609              1.933              3.112
 Vibration    17          0.621              1.892              2.560
 Vibration    18          0.627              1.875              2.396
 Vibration    19          0.629              1.867              2.329
 Vibration    20          0.647              1.811              1.963
 Vibration    21          0.649              1.804              1.924
 Vibration    22          0.663              1.761              1.724
 Vibration    23          0.679              1.713              1.543
 Vibration    24          0.684              1.698              1.492
 Vibration    25          0.691              1.677              1.426
 Vibration    26          0.713              1.614              1.257
 Vibration    27          0.742              1.533              1.079
 Vibration    28          0.782              1.429              0.895
 Vibration    29          0.788              1.413              0.871
 Vibration    30          0.808              1.363              0.798
 Vibration    31          0.828              1.315              0.736
 Vibration    32          0.866              1.225              0.630
 Vibration    33          0.903              1.145              0.549
 Vibration    34          0.932              1.084              0.493
 Vibration    35          0.972              1.004              0.428

 Normal termination of Gaussian 09 at Sat Nov 27 04:13:17 2021.
