 Gaussian 09, Revision D.01,
 Gaussian 09:  ES64L-G09RevD.01 24-Apr-2013

 ------------------------------------------------------------
 #p opt freq n12sx/6-311+g(d,p) scrf=(iefpcm,solvent=ethanol)
 ------------------------------------------------------------

 -----
 TITLE
 -----
 Symbolic Z-matrix:
 Charge =  0 Multiplicity = 1

 SCF Done:  E(RN12SX) =  -837.508409109     A.U. after   15 cycles
 SCF Done:  E(RN12SX) =  -837.508407972     A.U. after   12 cycles
 SCF Done:  E(RN12SX) =  -837.508759860     A.U. after   12 cycles
 SCF Done:  E(RN12SX) =  -837.508692866     A.U. after   12 cycles
 SCF Done:  E(RN12SX) =  -837.508853376     A.U. after   11 cycles
 SCF Done:  E(RN12SX) =  -837.508770799     A.U. after   12 cycles
 SCF Done:  E(RN12SX) =  -837.508899259     A.U. after   12 cycles
 SCF Done:  E(RN12SX) =  -837.508885975     A.U. after   11 cycles
 SCF Done:  E(RN12SX) =  -837.508950012     A.U. after   10 cycles
 SCF Done:  E(RN12SX) =  -837.508954206     A.U. after   10 cycles
 SCF Done:  E(RN12SX) =  -837.509029200     A.U. after    9 cycles
 SCF Done:  E(RN12SX) =  -837.509031078     A.U. after    8 cycles
 SCF Done:  E(RN12SX) =  -837.509030977     A.U. after    8 cycles
 SCF Done:  E(RN12SX) =  -837.509031081     A.U. after    8 cycles
 SCF Done:  E(RN12SX) =  -837.509031435     A.U. after    7 cycles
 SCF Done:  E(RN12SX) =  -837.509032111     A.U. after    7 cycles
 SCF Done:  E(RN12SX) =  -837.509032801     A.U. after    7 cycles
 SCF Done:  E(RN12SX) =  -837.509033446     A.U. after    7 cycles
 SCF Done:  E(RN12SX) =  -837.509033578     A.U. after    6 cycles
 Optimization completed.
    -- Stationary point found.
 Normal termination of Gaussian 09 at Fri Dec 17 00:41:17 2021.

 ----------------------------------------------------------------------
 #P Geom=AllCheck Guess=TCheck SCRF=Check GenChk RN12SX/6-311+G(d,p) Fr
 eq
 ----------------------------------------------------------------------

 Structure from the checkpoint file:  "reag_NHC31_et.chk"
 -----
 TITLE
 -----
 Charge =  0 Multiplicity = 1

                         Standard orientation:
 ---------------------------------------------------------------------
 Center     Atomic      Atomic             Coordinates (Angstroms)
 Number     Number       Type             X           Y           Z
 ---------------------------------------------------------------------
      1          1           0        1.011131   -0.326401    0.529878
      2          8           0        0.049492   -0.464426    0.717579
      3          6           0       -0.124093   -1.687369    1.393707
      4          1           0        0.350220   -2.502727    0.837917
      5          1           0        0.353336   -1.653736    2.379090
      6          6           0       -4.794978    0.630337    0.380037
      7          6           0       -2.441308    0.724313   -1.281525
      8          6           0       -3.696031    1.650196    0.625167
      9          1           0       -5.158612    0.177148    1.298460
     10          1           0       -5.657856    1.116254   -0.081380
     11          6           0       -3.026538    1.982291   -0.694476
     12          1           0       -2.094578    0.869514   -2.299813
     13          1           0       -1.615327    0.356129   -0.674181
     14          1           0       -4.117192    2.537987    1.091527
     15          1           0       -2.956154    1.246220    1.316913
     16          1           0       -2.219526    2.700966   -0.562083
     17          1           0       -3.747433    2.425560   -1.383116
     18          8           0       -3.400829   -0.355130   -1.374341
     19          8           0       -5.102803   -1.500519   -0.630174
     20          6           0       -4.439141   -0.493111   -0.556178
     21          6           0       -1.597489   -1.975787    1.555342
     22          1           0       -1.748842   -2.917304    2.080965
     23          1           0       -2.083741   -1.186605    2.127366
     24          1           0       -2.084964   -2.044722    0.584323
     25          7           0        4.896471    0.746236   -0.005782
     26          7           0        4.798285   -0.349590   -0.662367
     27          7           0        3.591645   -0.907249   -0.620947
     28          6           0        2.830064   -0.105107    0.130515
     29          7           0        3.688335    0.903845    0.486349
     30          6           0        3.394233    2.062443    1.302972
     31          6           0        5.912794   -0.925579   -1.384125
     32          1           0        2.367934    1.970470    1.633400
     33          1           0        4.058302    2.087412    2.160406
     34          1           0        3.513687    2.967699    0.716764
     35          1           0        6.768369   -0.274765   -1.261697
     36          1           0        6.121574   -1.908719   -0.977244
     37          1           0        5.644560   -1.008246   -2.431405
 ---------------------------------------------------------------------

 SCF Done:  E(RN12SX) =  -837.509033578     A.U. after    1 cycles

 The electronic state is 1-A.
 Alpha  occ. eigenvalues --  -19.21662 -19.15504 -19.13667 -14.52120 -14.47949
 Alpha  occ. eigenvalues --  -14.47165 -14.40828 -10.36001 -10.27791 -10.27289
 Alpha  occ. eigenvalues --  -10.26816 -10.25953 -10.25072 -10.23360 -10.22408
 Alpha  occ. eigenvalues --  -10.22268 -10.19872  -1.19504  -1.10510  -1.01565
 Alpha  occ. eigenvalues --   -0.99674  -0.98703  -0.92158  -0.82206  -0.82062
 Alpha  occ. eigenvalues --   -0.76550  -0.73948  -0.72465  -0.68107  -0.67710
 Alpha  occ. eigenvalues --   -0.63222  -0.62721  -0.59776  -0.55245  -0.54653
 Alpha  occ. eigenvalues --   -0.54188  -0.51128  -0.50032  -0.49135  -0.48468
 Alpha  occ. eigenvalues --   -0.47410  -0.47330  -0.45604  -0.45051  -0.44207
 Alpha  occ. eigenvalues --   -0.43866  -0.42578  -0.42276  -0.42005  -0.39642
 Alpha  occ. eigenvalues --   -0.39246  -0.38764  -0.37415  -0.36188  -0.35485
 Alpha  occ. eigenvalues --   -0.34914  -0.34288  -0.32852  -0.32588  -0.32366
 Alpha  occ. eigenvalues --   -0.31875  -0.30620  -0.29403  -0.27609  -0.25353
 Alpha  occ. eigenvalues --   -0.24669
 Alpha virt. eigenvalues --   -0.06728  -0.01366  -0.00739  -0.00176   0.00014
 Alpha virt. eigenvalues --    0.00604   0.01296   0.01355   0.01807   0.02695
 Alpha virt. eigenvalues --    0.02908   0.03287   0.03613   0.03753   0.04039

 Mulliken charges:
               1
     1  H    0.511778
     2  O   -0.554077
     3  C   -0.068237
     4  H    0.146596
     5  H    0.145728
     6  C   -0.374666
     7  C   -0.367460
     8  C   -0.181701
     9  H    0.217750
    10  H    0.229405
    11  C   -0.382579
    12  H    0.187620
    13  H    0.277975
    14  H    0.188060
    15  H    0.181951
    16  H    0.195165
    17  H    0.190085
    18  O   -0.105414
    19  O   -0.379388
    20  C    0.104099
    21  C   -0.630336
    22  H    0.164725
    23  H    0.162333
    24  H    0.164166
    25  N    0.045657
    26  N    0.099451
    27  N   -0.135824
    28  C   -0.602001
    29  N   -0.081675
    30  C   -0.294431
    31  C   -0.286860
    32  H    0.200331
    33  H    0.200935
    34  H    0.203050
    35  H    0.205233
    36  H    0.211193
    37  H    0.211359
 Sum of Mulliken charges =   0.00000

 Dipole moment (field-independent basis, Debye):
    X=             11.6133    Y=              7.3901    Z=              1.6163  Tot=             13.8599
 Quadrupole moment (field-independent basis, Debye-Ang):
   XX=            -77.8636   YY=            -99.9403   ZZ=            -97.6863
   XY=            -23.5647   XZ=            -14.1926   YZ=             -1.8974

  Exact polarizability: 214.459  11.272 202.733 -18.734  15.961 176.364
 Approx polarizability: 235.753  15.369 232.945 -15.403  19.688 200.597

                      1                      2                      3
                      A                      A                      A
 Frequencies --     11.8198                15.6683                24.6557
 Red. masses --      3.8652                 5.3618                 4.3276
 Frc consts  --      0.0003                 0.0008                 0.0015
 IR Inten    --      0.3935                 1.1994                 1.7508

                      4                      5                      6
                      A                      A                      A
 Frequencies --     27.4550                32.5298                40.9081
 Red. masses --      4.6112                 4.6444                 2.6738
 Frc consts  --      0.0020                 0.0029                 0.0026
 IR Inten    --      1.3227                 5.2307                 6.7915

                      7                      8                      9
                      A                      A                      A
 Frequencies --     48.0347                49.1151                61.2358
 Red. masses --      2.4341                 3.3744                 1.1459
 Frc consts  --      0.0033                 0.0048                 0.0025
 IR Inten    --     14.5719                 1.0932                 1.8789

                     10                     11                     12
                      A                      A                      A
 Frequencies --     69.4715                82.6225                83.5718
 Red. masses --      4.3781                 4.1024                 1.0861
 Frc consts  --      0.0124                 0.0165                 0.0045
 IR Inten    --      6.4386                 1.6355                 0.2835

                     13                     14                     15
                      A                      A                      A
 Frequencies --     99.8913               110.7218               162.0007
 Red. masses --      4.6315                 3.4856                 4.2358
 Frc consts  --      0.0272                 0.0252                 0.0655
 IR Inten    --      5.8331                 4.7153                 0.9903

                     16                     17                     18
                      A                      A                      A
 Frequencies --    177.5502               199.0902               275.7864
 Red. masses --      2.5551                 3.2376                 1.1156
 Frc consts  --      0.0475                 0.0756                 0.0500
 IR Inten    --     11.6185                 5.8021                 1.7316

                     19                     20                     21
                      A                      A                      A
 Frequencies --    298.5985               312.0576               330.6051
 Red. masses --      2.7182                 4.1340                 1.6866
 Frc consts  --      0.1428                 0.2372                 0.1086
 IR Inten    --     21.9501                 0.1859                 1.8363

                     22                     23                     24
                      A                      A                      A
 Frequencies --    418.8883               449.2143               460.5410
 Red. masses --      4.1370                 2.7981                 3.3682
 Frc consts  --      0.4277                 0.3327                 0.4209
 IR Inten    --      2.5255                 2.2636                 0.4594

                     25                     26                     27
                      A                      A                      A
 Frequencies --    470.7101               511.8814               575.5754
 Red. masses --      3.7103                 2.9595                 3.0169
 Frc consts  --      0.4844                 0.4569                 0.5889
 IR Inten    --      4.9750                 7.6776                11.1296

                     28                     29                     30
                      A                      A                      A
 Frequencies --    660.7184               664.5316               693.3523
 Red. masses --      4.4101                 2.5319                 8.7038
 Frc consts  --      1.1343                 0.6588                 2.4653
 IR Inten    --     14.3861                16.8238                 0.8188

                     31                     32                     33
                      A                      A                      A
 Frequencies --    720.9878               772.1582               775.4654
 Red. masses --      8.3417                 4.2490                 5.1363
 Frc consts  --      2.5548                 1.4926                 1.8198
 IR Inten    --      1.4592                 8.1585                32.9333

                     34                     35                     36
                      A                      A                      A
 Frequencies --    815.7268               845.9121               903.2139
 Red. masses --      1.0853                 1.5519                 1.1073
 Frc consts  --      0.4255                 0.6543                 0.5322
 IR Inten    --      7.3049                14.0253               112.8941

                     37                     38                     39
                      A                      A                      A
 Frequencies --    905.6769               918.4802               945.7141
 Red. masses --      2.4565                 1.9205                 1.4657
 Frc consts  --      1.1872                 0.9546                 0.7724
 IR Inten    --      3.8036                19.6568                15.9669

                     40                     41                     42
                      A                      A                      A
 Frequencies --    960.5107              1003.4214              1005.9478
 Red. masses --      2.4330                 2.4552                 3.4019
 Frc consts  --      1.3225                 1.4565                 2.0283
 IR Inten    --     30.6085                18.0938                11.7278

                     43                     44                     45
                      A                      A                      A
 Frequencies --   1082.2150              1087.5984              1091.1901
 Red. masses --      2.0575                 1.4641                 2.4359
 Frc consts  --      1.4198                 1.0204                 1.7089
 IR Inten    --      1.1954                50.5826                38.1326

                     46                     47                     48
                      A                      A                      A
 Frequencies --   1110.2660              1118.5782              1128.7702
 Red. masses --      3.0365                 3.4249                 1.8802
 Frc consts  --      2.2054                 2.5248                 1.4115
 IR Inten    --      8.3979               108.2736                17.8531

                     49                     50                     51
                      A                      A                      A
 Frequencies --   1135.9853              1140.2200              1155.3273
 Red. masses --      3.4934                 3.6136                 1.3586
 Frc consts  --      2.6561                 2.7680                 1.0684
 IR Inten    --     36.2201                70.7016                 0.6824

                     52                     53                     54
                      A                      A                      A
 Frequencies --   1159.3824              1184.5367              1200.3167
 Red. masses --      1.3517                 1.5709                 1.8523
 Frc consts  --      1.0705                 1.2987                 1.5723
 IR Inten    --      0.5912                 9.2891                92.7715

                     55                     56                     57
                      A                      A                      A
 Frequencies --   1221.1708              1274.0495              1282.0662
 Red. masses --      1.4038                 4.9473                 1.9245
 Frc consts  --      1.2334                 4.7314                 1.8638
 IR Inten    --     22.6424                55.6089               263.7666

                     58                     59                     60
                      A                      A                      A
 Frequencies --   1295.3291              1308.9023              1310.6535
 Red. masses --      1.2544                 3.8829                 1.0931
 Frc consts  --      1.2400                 3.9194                 1.1064
 IR Inten    --     20.2422                10.3922                 0.6450

                     61                     62                     63
                      A                      A                      A
 Frequencies --   1332.7520              1369.7941              1370.5162
 Red. masses --      1.2397                 1.2026                 1.5165
 Frc consts  --      1.2974                 1.3294                 1.6783
 IR Inten    --     78.3410                64.8659                42.1540

                     64                     65                     66
                      A                      A                      A
 Frequencies --   1382.1164              1397.4727              1401.2961
 Red. masses --      1.5606                 1.5149                 1.2875
 Frc consts  --      1.7564                 1.7431                 1.4896
 IR Inten    --     49.7260                 1.1055                21.8460

                     67                     68                     69
                      A                      A                      A
 Frequencies --   1409.1414              1428.9216              1449.0715
 Red. masses --      4.7307                 3.6428                 1.1074
 Frc consts  --      5.5346                 4.3823                 1.3700
 IR Inten    --     42.8973                 7.6507                27.6243

                     70                     71                     72
                      A                      A                      A
 Frequencies --   1453.5822              1466.5765              1468.7894
 Red. masses --      1.3055                 1.3905                 1.4758
 Frc consts  --      1.6252                 1.7621                 1.8759
 IR Inten    --      1.5843                21.4530                12.5312

                     73                     74                     75
                      A                      A                      A
 Frequencies --   1473.4870              1480.5235              1481.1169
 Red. masses --      1.0384                 1.3386                 1.0490
 Frc consts  --      1.3283                 1.7287                 1.3558
 IR Inten    --     21.9357                23.3164                 7.9585

                     76                     77                     78
                      A                      A                      A
 Frequencies --   1481.7755              1485.1214              1497.1128
 Red. masses --      1.0863                 1.0369                 1.0511
 Frc consts  --      1.4052                 1.3474                 1.3880
 IR Inten    --     12.2465                21.9582                 7.2882

                     79                     80                     81
                      A                      A                      A
 Frequencies --   1500.6861              1505.4389              1515.0382
 Red. masses --      1.0820                 1.0914                 1.2954
 Frc consts  --      1.4357                 1.4573                 1.7518
 IR Inten    --     21.0149                24.4173                 9.0553

                     82                     83                     84
                      A                      A                      A
 Frequencies --   1530.9788              1538.2342              1549.4273
 Red. masses --      1.0893                 1.0970                 3.0950
 Frc consts  --      1.5043                 1.5293                 4.3777
 IR Inten    --      9.4192                15.0097                 1.6491

                     85                     86                     87
                      A                      A                      A
 Frequencies --   1776.2731              3006.6771              3037.4938
 Red. masses --     12.0544                 1.0564                 1.1053
 Frc consts  --     22.4086                 5.6265                 6.0083
 IR Inten    --    744.8191               112.7367                80.7971

                     88                     89                     90
                      A                      A                      A
 Frequencies --   3068.4022              3074.0733              3077.6081
 Red. masses --      1.0359                 1.0670                 1.0698
 Frc consts  --      5.7462                 5.9410                 5.9703
 IR Inten    --     53.1188                25.2671                 7.1472

                     91                     92                     93
                      A                      A                      A
 Frequencies --   3084.7547              3098.2303              3113.9454
 Red. masses --      1.0620                 1.0638                 1.0332
 Frc consts  --      5.9539                 6.0162                 5.9028
 IR Inten    --     48.3441                19.1230                21.7123

                     94                     95                     96
                      A                      A                      A
 Frequencies --   3121.1376              3133.7452              3138.0230
 Red. masses --      1.0321                 1.0971                 1.1015
 Frc consts  --      5.9238                 6.3477                 6.3907
 IR Inten    --     11.2579                25.4507                51.4740

                     97                     98                     99
                      A                      A                      A
 Frequencies --   3143.3334              3150.5926              3152.4353
 Red. masses --      1.1023                 1.1023                 1.0952
 Frc consts  --      6.4168                 6.4467                 6.4127
 IR Inten    --     53.3486                66.6139                10.5505

                    100                    101                    102
                      A                      A                      A
 Frequencies --   3169.4531              3198.8956              3201.9740
 Red. masses --      1.1070                 1.1068                 1.0753
 Frc consts  --      6.5518                 6.6730                 6.4955
 IR Inten    --     62.6445                 5.0496              2594.2365

                    103                    104                    105
                      A                      A                      A
 Frequencies --   3210.1915              3230.6037              3239.8186
 Red. masses --      1.1068                 1.1049                 1.1068
 Frc consts  --      6.7201                 6.7942                 6.8445
 IR Inten    --      0.9679                 0.4394                 0.3075

 - Thermochemistry -
 -------------------
 Temperature   298.150 Kelvin.  Pressure   1.00000 Atm.
 Atom     1 has atomic number  1 and mass   1.00783

 Molecular mass:   244.15354 amu.
 Principal axes and moments of inertia in atomic units:
                           1         2         3
     Eigenvalues --  2195.23115********************
           X            0.99994  -0.00811  -0.00692
           Y            0.00793   0.99963  -0.02586
           Z            0.00713   0.02580   0.99964
 This molecule is an asymmetric top.
 Rotational symmetry number  1.
 Warning -- assumption of classical behavior for rotation
           may cause significant error
 Rotational temperatures (Kelvin)      0.03946     0.00658     0.00634
 Rotational constants (GHZ):           0.82212     0.13717     0.13204
 Zero-point vibrational energy     829461.9 (Joules/Mol)
                                  198.24616 (Kcal/Mol)
 Warning -- explicit consideration of  27 degrees of freedom as
           vibrations may cause significant error
 Vibrational temperatures:     17.01    22.54    35.47    39.50    46.80
          (Kelvin)             58.86    69.11    70.67    88.10    99.95
                              118.88   120.24   143.72   159.30   233.08
                              255.45   286.45   396.79   429.62   448.98
                              475.67   602.69   646.32   662.61   677.25
                              736.48   828.12   950.63   956.11   997.58
                             1037.34  1110.96  1115.72  1173.65  1217.08
                             1299.52  1303.07  1321.49  1360.67  1381.96
                             1443.70  1447.33  1557.06  1564.81  1569.98
                             1597.42  1609.38  1624.05  1634.43  1640.52
                             1662.26  1668.09  1704.28  1726.99  1756.99
                             1833.07  1844.60  1863.69  1883.22  1885.74
                             1917.53  1970.83  1971.86  1988.55  2010.65
                             2016.15  2027.44  2055.90  2084.89  2091.38
                             2110.07  2113.26  2120.02  2130.14  2130.99
                             2131.94  2136.76  2154.01  2159.15  2165.99
                             2179.80  2202.73  2213.17  2229.28  2555.66
                             4325.93  4370.27  4414.74  4422.90  4427.99
                             4438.27  4457.66  4480.27  4490.62  4508.75
                             4514.91  4522.55  4532.99  4535.65  4560.13
                             4602.49  4606.92  4618.74  4648.11  4661.37

 Zero-point correction=                           0.315925 (Hartree/Particle)
 Thermal correction to Energy=                    0.336831
 Thermal correction to Enthalpy=                  0.337775
 Thermal correction to Gibbs Free Energy=         0.257779
 Sum of electronic and zero-point Energies=           -837.193108
 Sum of electronic and thermal Energies=              -837.172203
 Sum of electronic and thermal Enthalpies=            -837.171259
 Sum of electronic and thermal Free Energies=         -837.251255

                     E (Thermal)             CV                S
                      KCal/Mol        Cal/Mol-Kelvin    Cal/Mol-Kelvin
 Total                  211.365             68.845            168.366
 Electronic               0.000              0.000              0.000
 Translational            0.889              2.981             42.379
 Rotational               0.889              2.981             34.334
 Vibrational            209.587             62.883             91.653
 Vibration     1          0.593              1.987              7.679
 Vibration     2          0.593              1.986              7.119
 Vibration     3          0.593              1.985              6.219
 Vibration     4          0.593              1.984              6.005
 Vibration     5          0.594              1.983              5.669
 Vibration     6          0.594              1.981              5.215
 Vibration     7          0.595              1.978              4.897
 Vibration     8          0.595              1.978              4.853
 Vibration     9          0.597              1.973              4.417
 Vibration    10          0.598              1.969              4.168
 Vibration    11          0.600              1.961              3.828
 Vibration    12          0.600              1.960              3.805
 Vibration    13          0.604              1.949              3.456
 Vibration    14          0.607              1.941              3.256
 Vibration    15          0.622              1.889              2.526
 Vibration    16          0.628              1.870              2.354
 Vibration    17          0.637              1.841              2.141
 Vibration    18          0.677              1.718              1.560
 Vibration    19          0.692              1.676              1.425
 Vibration    20          0.700              1.651              1.351
 Vibration    21          0.713              1.614              1.257
 Vibration    22          0.782              1.429              0.896
 Vibration    23          0.808              1.363              0.798
 Vibration    24          0.818              1.338              0.765
 Vibration    25          0.828              1.315              0.736
 Vibration    26          0.867              1.224              0.629
 Vibration    27          0.932              1.084              0.494

 Normal termination of Gaussian 09 at Fri Dec 17 01:59:19 2021.
