 Gaussian 09, Revision D.01,
 Gaussian 09:  ES64L-G09RevD.01 24-Apr-2013

 ----------------------------------------------------------
 #p opt freq n12sx/6-311+g(d,p) scrf=(iefpcm,solvent=water)
 ----------------------------------------------------------

 -----
 TITLE
 -----
 Symbolic Z-matrix:
 Charge =  0 Multiplicity = 1

 SCF Done:  E(RN12SX) =  -540.554369860     A.U. after   14 cycles
 SCF Done:  E(RN12SX) =  -540.554983949     A.U. after   11 cycles
 SCF Done:  E(RN12SX) =  -540.560092502     A.U. after   10 cycles
 SCF Done:  E(RN12SX) =  -540.560474325     A.U. after   10 cycles
 SCF Done:  E(RN12SX) =  -540.560540227     A.U. after    9 cycles
 SCF Done:  E(RN12SX) =  -540.560551045     A.U. after    9 cycles
 SCF Done:  E(RN12SX) =  -540.560562359     A.U. after    8 cycles
 SCF Done:  E(RN12SX) =  -540.560573555     A.U. after    9 cycles
 SCF Done:  E(RN12SX) =  -540.560579622     A.U. after   10 cycles
 SCF Done:  E(RN12SX) =  -540.560604986     A.U. after    9 cycles
 SCF Done:  E(RN12SX) =  -540.560607412     A.U. after   10 cycles
 SCF Done:  E(RN12SX) =  -540.560615523     A.U. after    8 cycles
 SCF Done:  E(RN12SX) =  -540.560621668     A.U. after    8 cycles
 SCF Done:  E(RN12SX) =  -540.560623157     A.U. after    8 cycles
 SCF Done:  E(RN12SX) =  -540.560623085     A.U. after    7 cycles
 SCF Done:  E(RN12SX) =  -540.560623536     A.U. after    7 cycles
 SCF Done:  E(RN12SX) =  -540.560623578     A.U. after    7 cycles
 SCF Done:  E(RN12SX) =  -540.560623570     A.U. after    6 cycles
 SCF Done:  E(RN12SX) =  -540.560623573     A.U. after    6 cycles
 Optimization completed.
    -- Stationary point found.
 Normal termination of Gaussian 09 at Sat Jun 19 12:20:57 2021.

 ----------------------------------------------------------------------
 #P Geom=AllCheck Guess=TCheck SCRF=Check GenChk RN12SX/6-311+G(d,p) Fr
 eq
 ----------------------------------------------------------------------

 Structure from the checkpoint file:  "NHC10.chk"
 -----
 TITLE
 -----
 Charge =  0 Multiplicity = 1

                         Standard orientation:
 ---------------------------------------------------------------------
 Center     Atomic      Atomic             Coordinates (Angstroms)
 Number     Number       Type             X           Y           Z
 ---------------------------------------------------------------------
      1          6           0        0.679687    0.914142    0.083187
      2          6           0       -0.679692    0.914129    0.083202
      3          7           0       -1.065656   -0.409241   -0.110476
      4          6           0       -0.000001   -1.237623   -0.227076
      5          7           0        1.065655   -0.409241   -0.110469
      6          6           0       -1.599279    2.073494    0.209057
      7          6           0        1.599252    2.073508    0.209141
      8          6           0       -2.426033   -0.952743   -0.142247
      9          6           0       -3.290235   -0.328374   -1.226679
     10          6           0       -3.084645   -0.921196    1.229007
     11          6           0        2.426020   -0.952744   -0.142242
     12          6           0        3.084735   -0.921105    1.228967
     13          6           0        3.290185   -0.328431   -1.226748
     14          1           0       -1.051039    2.945006    0.554590
     15          1           0       -2.058975    2.336710   -0.743181
     16          1           0       -2.400975    1.892318    0.920688
     17          1           0        1.050940    2.945029    0.554537
     18          1           0        2.400811    1.892365    0.920935
     19          1           0        2.059129    2.336707   -0.743016
     20          1           0       -2.262077   -1.994467   -0.406657
     21          1           0       -2.773040   -0.330772   -2.183927
     22          1           0       -4.203940   -0.909494   -1.334666
     23          1           0       -3.577306    0.692985   -0.991127
     24          1           0       -2.451594   -1.406186    1.968993
     25          1           0       -4.033175   -1.453698    1.191419
     26          1           0       -3.289118    0.093025    1.564444
     27          1           0        2.262060   -1.994485   -0.406577
     28          1           0        2.451624   -1.405792    1.969102
     29          1           0        4.033113   -1.453878    1.191397
     30          1           0        3.289513    0.093128    1.564183
     31          1           0        2.773017   -0.331022   -2.184009
     32          1           0        4.203968   -0.909446   -1.334617
     33          1           0        3.577107    0.692997   -0.991311
 ---------------------------------------------------------------------

 SCF Done:  E(RN12SX) =  -540.560623573     A.U. after    1 cycles

 The electronic state is 1-A.
 Alpha  occ. eigenvalues --  -14.39975 -14.39972 -10.26091 -10.26090 -10.24893
 Alpha  occ. eigenvalues --  -10.24819 -10.22779 -10.21881 -10.21880 -10.20709
 Alpha  occ. eigenvalues --  -10.20708 -10.20692 -10.20692  -1.02154  -0.91598
 Alpha  occ. eigenvalues --   -0.81722  -0.78673  -0.76837  -0.72941  -0.69250
 Alpha  occ. eigenvalues --   -0.69215  -0.67543  -0.63521  -0.60433  -0.56513
 Alpha  occ. eigenvalues --   -0.53652  -0.48608  -0.47741  -0.46705  -0.44318
 Alpha  occ. eigenvalues --   -0.44031  -0.42746  -0.42610  -0.42309  -0.41484
 Alpha  occ. eigenvalues --   -0.40359  -0.40297  -0.38927  -0.38166  -0.37914
 Alpha  occ. eigenvalues --   -0.37207  -0.36842  -0.35999  -0.35162  -0.33941
 Alpha  occ. eigenvalues --   -0.32773  -0.32742  -0.26458  -0.21791  -0.20956
 Alpha virt. eigenvalues --   -0.00669   0.00314   0.00666   0.00967   0.01670
 Alpha virt. eigenvalues --    0.02030   0.02204   0.02635   0.03387   0.03765
 Alpha virt. eigenvalues --    0.04525   0.04630   0.05048   0.05161   0.05868

 Mulliken charges:
               1
     1  C    0.275580
     2  C    0.275496
     3  N    0.442376
     4  C   -0.145746
     5  N    0.442381
     6  C   -1.077375
     7  C   -1.077365
     8  C   -0.345269
     9  C   -0.501196
    10  C   -0.447333
    11  C   -0.345230
    12  C   -0.447377
    13  C   -0.501179
    14  H    0.167941
    15  H    0.197426
    16  H    0.181479
    17  H    0.167940
    18  H    0.181479
    19  H    0.197413
    20  H    0.173225
    21  H    0.167848
    22  H    0.172809
    23  H    0.171103
    24  H    0.164354
    25  H    0.169630
    26  H    0.160317
    27  H    0.173223
    28  H    0.164355
    29  H    0.169636
    30  H    0.160314
    31  H    0.167843
    32  H    0.172805
    33  H    0.171096
 Sum of Mulliken charges =   0.00000

 Dipole moment (field-independent basis, Debye):
    X=             -0.0001    Y=              4.1409    Z=              0.5850  Tot=              4.1820
 Quadrupole moment (field-independent basis, Debye-Ang):
   XX=            -66.3855   YY=            -84.0190   ZZ=            -83.1178
   XY=             -0.0001   XZ=              0.0002   YZ=             -0.5859

  Exact polarizability: 219.939   0.001 195.331   0.000   3.341 158.225
 Approx polarizability: 232.893   0.001 213.233   0.000   5.016 172.975

                      1                      2                      3
                      A                      A                      A
 Frequencies --     52.0801                67.2703                90.3815
 Red. masses --      3.0019                 2.3176                 2.9247
 Frc consts  --      0.0048                 0.0062                 0.0141
 IR Inten    --      0.8312                 0.0296                 0.0198

                      4                      5                      6
                      A                      A                      A
 Frequencies --    115.7056               149.0903               151.3546
 Red. masses --      2.1247                 1.1564                 1.0412
 Frc consts  --      0.0168                 0.0151                 0.0141
 IR Inten    --      9.5720                 2.0685                 0.0543

                      7                      8                      9
                      A                      A                      A
 Frequencies --    183.9985               207.7923               235.5776
 Red. masses --      2.9007                 1.7242                 1.2353
 Frc consts  --      0.0579                 0.0439                 0.0404
 IR Inten    --      2.7745                 0.4652                 0.0057

                     10                     11                     12
                      A                      A                      A
 Frequencies --    239.2894               242.1727               256.9310
 Red. masses --      1.1750                 2.5015                 1.3646
 Frc consts  --      0.0396                 0.0864                 0.0531
 IR Inten    --      0.0509                 1.8233                 0.1407

                     13                     14                     15
                      A                      A                      A
 Frequencies --    272.2256               280.0041               286.5056
 Red. masses --      2.2038                 1.3751                 2.1944
 Frc consts  --      0.0962                 0.0635                 0.1061
 IR Inten    --      0.0258                 0.0957                 1.3648

                     16                     17                     18
                      A                      A                      A
 Frequencies --    330.7334               339.2557               397.1859
 Red. masses --      2.3229                 2.3024                 3.7084
 Frc consts  --      0.1497                 0.1561                 0.3447
 IR Inten    --      0.0960                 2.8562                20.4425

                     19                     20                     21
                      A                      A                      A
 Frequencies --    398.5617               457.9876               483.3045
 Red. masses --      2.5011                 2.4820                 4.0115
 Frc consts  --      0.2341                 0.3067                 0.5521
 IR Inten    --      0.3019                 0.9831                 0.1236

                     22                     23                     24
                      A                      A                      A
 Frequencies --    549.9330               601.5940               645.7974
 Red. masses --      3.7647                 2.6524                 2.9025
 Frc consts  --      0.6708                 0.5656                 0.7132
 IR Inten    --     13.7270                 0.0103                 0.1606

                     25                     26                     27
                      A                      A                      A
 Frequencies --    670.4398               697.5525               744.4271
 Red. masses --      8.3834                 4.6320                 3.9014
 Frc consts  --      2.2202                 1.3279                 1.2738
 IR Inten    --      0.5189                 1.0237                 4.2122

                     28                     29                     30
                      A                      A                      A
 Frequencies --    770.8415               907.5036               928.5771
 Red. masses --      3.0116                 2.3990                 2.0571
 Frc consts  --      1.0543                 1.1641                 1.0450
 IR Inten    --      8.3770                 3.3811                16.4714

                     31                     32                     33
                      A                      A                      A
 Frequencies --    938.1910               938.3624               963.4771
 Red. masses --      1.1739                 1.1883                 1.4334
 Frc consts  --      0.6088                 0.6165                 0.7840
 IR Inten    --      3.5442                 0.2997                 0.0008

                     34                     35                     36
                      A                      A                      A
 Frequencies --    963.5474               978.6276              1044.7788
 Red. masses --      1.4322                 1.5217                 1.5971
 Frc consts  --      0.7834                 0.8587                 1.0271
 IR Inten    --      0.0426                 0.0028                16.2442

                     37                     38                     39
                      A                      A                      A
 Frequencies --   1052.1666              1067.8232              1082.7867
 Red. masses --      1.3913                 1.5437                 1.9578
 Frc consts  --      0.9075                 1.0371                 1.3524
 IR Inten    --      4.7143                 5.4765                12.2976

                     40                     41                     42
                      A                      A                      A
 Frequencies --   1132.2758              1167.3980              1167.6848
 Red. masses --      2.0357                 2.2164                 2.2169
 Frc consts  --      1.5377                 1.7796                 1.7809
 IR Inten    --     22.2548                 0.8486                29.1821

                     43                     44                     45
                      A                      A                      A
 Frequencies --   1178.4441              1198.5646              1206.7223
 Red. masses --      2.2994                 2.0366                 2.4224
 Frc consts  --      1.8814                 1.7238                 2.0783
 IR Inten    --      1.2953                 6.8264                 0.0951

                     46                     47                     48
                      A                      A                      A
 Frequencies --   1261.0465              1306.5453              1345.2527
 Red. masses --      4.2671                 2.9402                 1.8497
 Frc consts  --      3.9980                 2.9572                 1.9722
 IR Inten    --    106.3017                13.4025                 5.4646

                     49                     50                     51
                      A                      A                      A
 Frequencies --   1367.4672              1367.9661              1395.6449
 Red. masses --      1.3541                 1.3573                 4.3051
 Frc consts  --      1.4918                 1.4965                 4.9407
 IR Inten    --      0.0232                 5.0182                13.8347

                     52                     53                     54
                      A                      A                      A
 Frequencies --   1399.6225              1402.2851              1402.5334
 Red. masses --      6.0765                 1.3009                 1.3024
 Frc consts  --      7.0134                 1.5072                 1.5094
 IR Inten    --    286.7062                 0.2378                45.1942

                     55                     56                     57
                      A                      A                      A
 Frequencies --   1416.0551              1416.2030              1420.0586
 Red. masses --      1.2893                 1.3273                 1.2511
 Frc consts  --      1.5232                 1.5685                 1.4865
 IR Inten    --      2.7187                11.0068                 9.1709

                     58                     59                     60
                      A                      A                      A
 Frequencies --   1429.0378              1437.0926              1455.9146
 Red. masses --      1.4619                 1.4944                 2.1350
 Frc consts  --      1.7589                 1.8183                 2.6663
 IR Inten    --      2.1852                32.1825                 2.0300

                     61                     62                     63
                      A                      A                      A
 Frequencies --   1476.6571              1478.0440              1483.2230
 Red. masses --      1.0703                 1.0575                 1.0430
 Frc consts  --      1.3751                 1.3611                 1.3519
 IR Inten    --      0.0652                26.2175                 0.0114

                     64                     65                     66
                      A                      A                      A
 Frequencies --   1483.5873              1487.5717              1488.8632
 Red. masses --      1.0436                 1.1031                 1.0633
 Frc consts  --      1.3533                 1.4382                 1.3887
 IR Inten    --      0.6618                 0.0249                 0.1321

                     67                     68                     69
                      A                      A                      A
 Frequencies --   1497.3141              1497.3921              1503.4382
 Red. masses --      1.0550                 1.0645                 1.0817
 Frc consts  --      1.3936                 1.4063                 1.4405
 IR Inten    --      4.9645                 5.5069                 2.4900

                     70                     71                     72
                      A                      A                      A
 Frequencies --   1506.5555              1510.6033              1511.6386
 Red. masses --      1.0730                 1.0776                 1.0750
 Frc consts  --      1.4349                 1.4487                 1.4472
 IR Inten    --     68.4430                 7.3258                 1.8762

                     73                     74                     75
                      A                      A                      A
 Frequencies --   1697.6907              3076.1038              3077.3423
 Red. masses --      7.6496                 1.0402                 1.0391
 Frc consts  --     12.9899                 5.7990                 5.7980
 IR Inten    --      5.7602                29.4095                47.8774

                     76                     77                     78
                      A                      A                      A
 Frequencies --   3078.7272              3079.1089              3084.2152
 Red. masses --      1.0362                 1.0374                 1.0367
 Frc consts  --      5.7867                 5.7948                 5.8100
 IR Inten    --     10.4747                46.8205                66.3611

                     79                     80                     81
                      A                      A                      A
 Frequencies --   3084.9538              3120.9505              3121.1213
 Red. masses --      1.0371                 1.0863                 1.0861
 Frc consts  --      5.8154                 6.2340                 6.2337
 IR Inten    --     15.3873                 2.7473                 2.6741

                     82                     83                     84
                      A                      A                      A
 Frequencies --   3140.9318              3141.1460              3155.6367
 Red. masses --      1.0974                 1.0970                 1.1021
 Frc consts  --      6.3784                 6.3770                 6.4660
 IR Inten    --      1.4473                39.7007                 3.2436

                     85                     86                     87
                      A                      A                      A
 Frequencies --   3155.7022              3158.1958              3158.3001
 Red. masses --      1.1021                 1.1022                 1.1021
 Frc consts  --      6.4662                 6.4774                 6.4773
 IR Inten    --     31.2123               103.3883                13.5737

                     88                     89                     90
                      A                      A                      A
 Frequencies --   3162.1995              3162.7504              3167.9906
 Red. masses --      1.1019                 1.1017                 1.1019
 Frc consts  --      6.4920                 6.4931                 6.5155
 IR Inten    --      0.6492                66.9583                10.3641

                     91                     92                     93
                      A                      A                      A
 Frequencies --   3170.2607              3173.1656              3175.2492
 Red. masses --      1.1009                 1.1001                 1.0986
 Frc consts  --      6.5191                 6.5262                 6.5262
 IR Inten    --    102.9679                16.5665                 6.5576

 - Thermochemistry -
 -------------------
 Temperature   298.150 Kelvin.  Pressure   1.00000 Atm.
 Atom     1 has atomic number  6 and mass  12.00000

 Molecular mass:   180.16265 amu.
 Principal axes and moments of inertia in atomic units:
                           1         2         3
     Eigenvalues --  1269.176133641.121234127.68030
           X            1.00000   0.00000   0.00000
           Y            0.00000   0.99996  -0.00938
           Z            0.00000   0.00938   0.99996
 This molecule is an asymmetric top.
 Rotational symmetry number  1.
 Warning -- assumption of classical behavior for rotation
           may cause significant error
 Rotational temperatures (Kelvin)      0.06824     0.02379     0.02098
 Rotational constants (GHZ):           1.42198     0.49566     0.43723
 Zero-point vibrational energy     783101.1 (Joules/Mol)
                                  187.16565 (Kcal/Mol)
 Warning -- explicit consideration of  23 degrees of freedom as
           vibrations may cause significant error
 Vibrational temperatures:     74.93    96.79   130.04   166.47   214.51
          (Kelvin)            217.77   264.73   298.97   338.94   344.28
                              348.43   369.67   391.67   402.86   412.22
                              475.85   488.11   571.46   573.44   658.94
                              695.37   791.23   865.56   929.16   964.61
                             1003.62  1071.06  1109.07  1305.69  1336.01
                             1349.85  1350.09  1386.23  1386.33  1408.03
                             1503.20  1513.83  1536.36  1557.89  1629.09
                             1679.62  1680.04  1695.52  1724.46  1736.20
                             1814.36  1879.82  1935.52  1967.48  1968.20
                             2008.02  2013.74  2017.57  2017.93  2037.38
                             2037.60  2043.15  2056.06  2067.65  2094.73
                             2124.58  2126.57  2134.02  2134.55  2140.28
                             2142.14  2154.30  2154.41  2163.11  2167.59
                             2173.42  2174.91  2442.60  4425.82  4427.60
                             4429.60  4430.15  4437.49  4438.55  4490.35
                             4490.59  4519.09  4519.40  4540.25  4540.35
                             4543.93  4544.08  4549.69  4550.49  4558.03
                             4561.29  4565.47  4568.47

 Zero-point correction=                           0.298267 (Hartree/Particle)
 Thermal correction to Energy=                    0.313441
 Thermal correction to Enthalpy=                  0.314385
 Thermal correction to Gibbs Free Energy=         0.257262
 Sum of electronic and zero-point Energies=           -540.262356
 Sum of electronic and thermal Energies=              -540.247183
 Sum of electronic and thermal Enthalpies=            -540.246239
 Sum of electronic and thermal Free Energies=         -540.303361

                     E (Thermal)             CV                S
                      KCal/Mol        Cal/Mol-Kelvin    Cal/Mol-Kelvin
 Total                  196.687             56.902            120.224
 Electronic               0.000              0.000              0.000
 Translational            0.889              2.981             41.473
 Rotational               0.889              2.981             31.323
 Vibrational            194.909             50.941             47.428
 Vibration     1          0.596              1.977              4.737
 Vibration     2          0.598              1.970              4.232
 Vibration     3          0.602              1.956              3.652
 Vibration     4          0.608              1.936              3.171
 Vibration     5          0.618              1.904              2.684
 Vibration     6          0.619              1.901              2.655
 Vibration     7          0.631              1.862              2.287
 Vibration     8          0.641              1.829              2.063
 Vibration     9          0.655              1.786              1.836
 Vibration    10          0.657              1.780              1.808
 Vibration    11          0.658              1.776              1.787
 Vibration    12          0.667              1.751              1.683
 Vibration    13          0.675              1.724              1.582
 Vibration    14          0.680              1.711              1.534
 Vibration    15          0.684              1.699              1.495
 Vibration    16          0.713              1.614              1.257
 Vibration    17          0.719              1.597              1.216
 Vibration    18          0.764              1.476              0.973
 Vibration    19          0.765              1.473              0.968
 Vibration    20          0.816              1.343              0.772
 Vibration    21          0.839              1.287              0.701
 Vibration    22          0.905              1.140              0.544
 Vibration    23          0.960              1.028              0.447

 Optimization completed.
    -- Stationary point found.
 Normal termination of Gaussian 09 at Sat Jun 19 14:09:56 2021.
