 Gaussian 09, Revision D.01,
 Gaussian 09:  ES64L-G09RevD.01 24-Apr-2013

 ----------------------------------------------------------
 #p opt freq n12sx/6-311+g(d,p) scrf=(iefpcm,solvent=water)
 ----------------------------------------------------------

 -----
 TITLE
 -----
 Symbolic Z-matrix:
 Charge =  0 Multiplicity = 1

 SCF Done:  E(RN12SX) =  -422.505425647     A.U. after   14 cycles
 SCF Done:  E(RN12SX) =  -422.540765343     A.U. after   12 cycles
 SCF Done:  E(RN12SX) =  -422.560883451     A.U. after   12 cycles
 SCF Done:  E(RN12SX) =  -422.581486864     A.U. after   12 cycles
 SCF Done:  E(RN12SX) =  -422.593854687     A.U. after   11 cycles
 SCF Done:  E(RN12SX) =  -422.606893450     A.U. after   12 cycles
 SCF Done:  E(RN12SX) =  -422.611323931     A.U. after   11 cycles
 SCF Done:  E(RN12SX) =  -422.614466409     A.U. after   11 cycles
 SCF Done:  E(RN12SX) =  -422.615702099     A.U. after   10 cycles
 SCF Done:  E(RN12SX) =  -422.616047682     A.U. after   10 cycles
 SCF Done:  E(RN12SX) =  -422.616170769     A.U. after   10 cycles
 SCF Done:  E(RN12SX) =  -422.616231653     A.U. after    9 cycles
 SCF Done:  E(RN12SX) =  -422.616267602     A.U. after    9 cycles
 SCF Done:  E(RN12SX) =  -422.616280498     A.U. after    9 cycles
 SCF Done:  E(RN12SX) =  -422.616287365     A.U. after    8 cycles
 SCF Done:  E(RN12SX) =  -422.616290582     A.U. after    8 cycles
 SCF Done:  E(RN12SX) =  -422.616291248     A.U. after    8 cycles
 Optimization completed.
    -- Stationary point found.
 Normal termination of Gaussian 09 at Tue Jun  8 08:22:36 2021.

 ----------------------------------------------------------------------
 #P Geom=AllCheck Guess=TCheck SCRF=Check GenChk RN12SX/6-311+G(d,p) Fr
 eq
 ----------------------------------------------------------------------

 Structure from the checkpoint file:  "NHC17.chk"
 -----
 TITLE
 -----
 Charge =  0 Multiplicity = 1

                         Standard orientation:
 ---------------------------------------------------------------------
 Center     Atomic      Atomic             Coordinates (Angstroms)
 Number     Number       Type             X           Y           Z
 ---------------------------------------------------------------------
      1          6           0       -1.223621    1.158613    0.191943
      2          7           0       -1.559073   -0.261619   -0.002267
      3          6           0       -0.665298   -1.256251   -0.040973
      4          7           0        0.496549   -0.988329    0.629848
      5          6           0        0.624674    0.257931    1.379351
      6          6           0        0.275567    1.329209    0.364479
      7          6           0        1.732780   -1.269411   -0.088956
      8          6           0        2.219986    0.047186   -0.739718
      9          6           0        1.071153    1.044128   -0.939960
     10          6           0       -2.888303   -0.488163   -0.529062
     11          1           0       -1.587774    1.696350   -0.684881
     12          1           0       -1.751757    1.553191    1.061107
     13          1           0        1.633732    0.335171    1.772933
     14          1           0       -0.065940    0.259776    2.220304
     15          1           0        0.478262    2.331740    0.734412
     16          1           0        2.488941   -1.660465    0.592645
     17          1           0        1.515145   -2.023933   -0.838946
     18          1           0        2.697356   -0.165183   -1.694417
     19          1           0        2.983196    0.505235   -0.110816
     20          1           0        1.467603    1.973982   -1.342159
     21          1           0        0.391584    0.650672   -1.697023
     22          1           0       -3.006797   -1.545915   -0.731896
     23          1           0       -3.043646    0.077049   -1.449376
     24          1           0       -3.643861   -0.177489    0.192420
 ---------------------------------------------------------------------

 SCF Done:  E(RN12SX) =  -422.616291248     A.U. after    1 cycles

 The electronic state is 1-A.
 Alpha  occ. eigenvalues --  -14.39216 -14.37384 -10.25177 -10.24436 -10.24262
 Alpha  occ. eigenvalues --  -10.24160 -10.23759 -10.22898 -10.21595 -10.21502
 Alpha  occ. eigenvalues --   -0.98757  -0.91503  -0.81088  -0.77029  -0.71402
 Alpha  occ. eigenvalues --   -0.70048  -0.65420  -0.61039  -0.58267  -0.51775
 Alpha  occ. eigenvalues --   -0.50475  -0.49551  -0.47270  -0.46397  -0.44801
 Alpha  occ. eigenvalues --   -0.42367  -0.40696  -0.40309  -0.39000  -0.37625
 Alpha  occ. eigenvalues --   -0.37198  -0.35141  -0.34479  -0.31636  -0.31317
 Alpha  occ. eigenvalues --   -0.28871  -0.24541  -0.18528
 Alpha virt. eigenvalues --   -0.00690  -0.00339   0.00862   0.01422   0.01672
 Alpha virt. eigenvalues --    0.02754   0.03005   0.03738   0.03973   0.04708
 Alpha virt. eigenvalues --    0.05667   0.06359   0.06576   0.07261   0.07658

 Mulliken charges:
               1
     1  C   -0.597137
     2  N    0.002967
     3  C   -0.350501
     4  N    0.099746
     5  C   -0.773957
     6  C    0.434084
     7  C   -0.346948
     8  C   -0.265185
     9  C   -0.571736
    10  C   -0.180407
    11  H    0.190993
    12  H    0.198249
    13  H    0.191660
    14  H    0.187612
    15  H    0.180729
    16  H    0.177131
    17  H    0.171862
    18  H    0.184296
    19  H    0.188675
    20  H    0.179923
    21  H    0.194955
    22  H    0.169804
    23  H    0.163569
    24  H    0.169614
 Sum of Mulliken charges =   0.00000

 Dipole moment (field-independent basis, Debye):
    X=              0.7147    Y=              5.0925    Z=              0.4959  Tot=              5.1662
 Quadrupole moment (field-independent basis, Debye-Ang):
   XX=            -54.0563   YY=            -68.5103   ZZ=            -60.8914
   XY=             -3.8600   XZ=              0.2684   YZ=              0.4329

  Exact polarizability: 156.423  -5.369 141.010   4.827   3.973 124.267
 Approx polarizability: 164.174  -8.292 150.931   7.398   2.373 140.330

                      1                      2                      3
                      A                      A                      A
 Frequencies --    116.5964               147.1721               220.8288
 Red. masses --      2.5458                 1.1139                 2.2789
 Frc consts  --      0.0204                 0.0142                 0.0655
 IR Inten    --      2.2481                 0.3958                 7.9398

                      4                      5                      6
                      A                      A                      A
 Frequencies --    240.1616               318.4972               330.9097
 Red. masses --      1.8980                 3.4640                 2.3619
 Frc consts  --      0.0645                 0.2070                 0.1524
 IR Inten    --     11.7252                23.5269                16.4139

                      7                      8                      9
                      A                      A                      A
 Frequencies --    349.5051               441.0723               459.8699
 Red. masses --      2.6705                 2.1040                 3.3814
 Frc consts  --      0.1922                 0.2412                 0.4213
 IR Inten    --      8.8659                 0.3905                 2.9536

                     10                     11                     12
                      A                      A                      A
 Frequencies --    488.7834               524.1589               571.6666
 Red. masses --      2.7321                 4.9083                 4.7556
 Frc consts  --      0.3846                 0.7945                 0.9157
 IR Inten    --     10.3644                 9.6712                 6.8714

                     13                     14                     15
                      A                      A                      A
 Frequencies --    649.8499               708.1723               802.0550
 Red. masses --      2.2151                 3.5435                 2.5446
 Frc consts  --      0.5511                 1.0470                 0.9644
 IR Inten    --      3.7358                16.3720                 3.5910

                     16                     17                     18
                      A                      A                      A
 Frequencies --    847.1979               859.9735               901.7980
 Red. masses --      2.1869                 2.4337                 1.9824
 Frc consts  --      0.9248                 1.0604                 0.9499
 IR Inten    --     12.8576                 5.9143                 8.1167

                     19                     20                     21
                      A                      A                      A
 Frequencies --    911.7233               951.4437               976.6477
 Red. masses --      2.2363                 2.3476                 1.7407
 Frc consts  --      1.0952                 1.2521                 0.9782
 IR Inten    --      2.6354                11.7746                 3.3188

                     22                     23                     24
                      A                      A                      A
 Frequencies --   1009.3604              1044.2125              1047.2643
 Red. masses --      2.0690                 2.0311                 2.1433
 Frc consts  --      1.2419                 1.3049                 1.3850
 IR Inten    --      2.4997                10.9319                23.8131

                     25                     26                     27
                      A                      A                      A
 Frequencies --   1089.6086              1111.4883              1119.7353
 Red. masses --      1.9488                 1.8518                 1.6152
 Frc consts  --      1.3632                 1.3479                 1.1932
 IR Inten    --      9.6875                26.0130                 8.7617

                     28                     29                     30
                      A                      A                      A
 Frequencies --   1149.2501              1167.0096              1182.5081
 Red. masses --      1.3975                 1.7796                 1.6191
 Frc consts  --      1.0875                 1.4280                 1.3339
 IR Inten    --      3.3978                21.4633                80.3042

                     31                     32                     33
                      A                      A                      A
 Frequencies --   1212.3630              1237.9799              1252.6541
 Red. masses --      1.3321                 2.0694                 1.2175
 Frc consts  --      1.1536                 1.8686                 1.1256
 IR Inten    --     10.4061                34.4387                13.5455

                     34                     35                     36
                      A                      A                      A
 Frequencies --   1270.6855              1295.4672              1307.3654
 Red. masses --      1.4109                 2.1262                 1.7947
 Frc consts  --      1.3422                 2.1023                 1.8073
 IR Inten    --      7.4703                25.5629                16.4364

                     37                     38                     39
                      A                      A                      A
 Frequencies --   1338.6082              1345.1998              1357.0587
 Red. masses --      1.4237                 1.4961                 1.7789
 Frc consts  --      1.5031                 1.5951                 1.9302
 IR Inten    --     68.4152                10.1017                22.5608

                     40                     41                     42
                      A                      A                      A
 Frequencies --   1363.0005              1380.0293              1387.1305
 Red. masses --      1.3241                 1.4888                 1.4375
 Frc consts  --      1.4493                 1.6706                 1.6296
 IR Inten    --      1.1681                14.1329                 3.0237

                     43                     44                     45
                      A                      A                      A
 Frequencies --   1406.2331              1434.6353              1470.0033
 Red. masses --      1.9779                 1.4346                 1.3820
 Frc consts  --      2.3045                 1.7397                 1.7595
 IR Inten    --    103.3852                20.5351                57.9654

                     46                     47                     48
                      A                      A                      A
 Frequencies --   1485.9550              1489.7404              1490.8078
 Red. masses --      1.0492                 1.0994                 1.0859
 Frc consts  --      1.3649                 1.4376                 1.4220
 IR Inten    --     23.2236                10.0141                 5.4601

                     49                     50                     51
                      A                      A                      A
 Frequencies --   1496.9945              1500.1291              1526.0089
 Red. masses --      1.0840                 1.0838                 1.0908
 Frc consts  --      1.4313                 1.4370                 1.4966
 IR Inten    --     13.8671                 7.4411                12.6139

                     52                     53                     54
                      A                      A                      A
 Frequencies --   1542.9567              3054.6128              3063.9988
 Red. masses --      1.5446                 1.0391                 1.0578
 Frc consts  --      2.1666                 5.7121                 5.8511
 IR Inten    --    150.2377                76.1084               133.3080

                     55                     56                     57
                      A                      A                      A
 Frequencies --   3067.5919              3075.2829              3084.7033
 Red. masses --      1.0665                 1.0664                 1.0634
 Frc consts  --      5.9129                 5.9423                 5.9616
 IR Inten    --     55.8540                23.8612                80.6101

                     58                     59                     60
                      A                      A                      A
 Frequencies --   3100.5975              3105.7130              3115.1725
 Red. masses --      1.0670                 1.1015                 1.0896
 Frc consts  --      6.0435                 6.2596                 6.2298
 IR Inten    --     20.7788                55.8060                68.9893

                     61                     62                     63
                      A                      A                      A
 Frequencies --   3116.6069              3126.9419              3134.1373
 Red. masses --      1.1029                 1.0985                 1.0983
 Frc consts  --      6.3119                 6.3282                 6.3565
 IR Inten    --     30.7906                25.7550                77.6128

                     64                     65                     66
                      A                      A                      A
 Frequencies --   3156.0248              3159.7050              3193.6524
 Red. masses --      1.1010                 1.1048                 1.0996
 Frc consts  --      6.4615                 6.4985                 6.6081
 IR Inten    --     29.5156                47.0481                12.2896

 - Thermochemistry -
 -------------------
 Temperature   298.150 Kelvin.  Pressure   1.00000 Atm.
 Atom     1 has atomic number  6 and mass  12.00000

 Molecular mass:   138.11570 amu.
 Principal axes and moments of inertia in atomic units:
                           1         2         3
     Eigenvalues --   730.493431484.351871695.85111
           X            0.99996  -0.00799   0.00315
           Y            0.00791   0.99966   0.02483
           Z           -0.00335  -0.02480   0.99969
 This molecule is an asymmetric top.
 Rotational symmetry number  1.
 Warning -- assumption of classical behavior for rotation
           may cause significant error
 Rotational temperatures (Kelvin)      0.11857     0.05835     0.05107
 Rotational constants (GHZ):           2.47058     1.21584     1.06421
 Zero-point vibrational energy     573515.3 (Joules/Mol)
                                  137.07344 (Kcal/Mol)
 Warning -- explicit consideration of  12 degrees of freedom as
           vibrations may cause significant error
 Vibrational temperatures:    167.76   211.75   317.72   345.54   458.25
          (Kelvin)            476.10   502.86   634.60   661.65   703.25
                              754.15   822.50   934.99  1018.90  1153.98
                             1218.93  1237.31  1297.48  1311.76  1368.91
                             1405.18  1452.24  1502.39  1506.78  1567.70
                             1599.18  1611.05  1653.51  1679.06  1701.36
                             1744.32  1781.17  1802.29  1828.23  1863.89
                             1881.00  1925.96  1935.44  1952.50  1961.05
                             1985.55  1995.77  2023.25  2064.12  2115.00
                             2137.96  2143.40  2144.94  2153.84  2158.35
                             2195.58  2219.97  4394.90  4408.41  4413.58
                             4424.64  4438.19  4461.06  4468.42  4482.03
                             4484.10  4498.97  4509.32  4540.81  4546.11
                             4594.95

 Zero-point correction=                           0.218440 (Hartree/Particle)
 Thermal correction to Energy=                    0.226991
 Thermal correction to Enthalpy=                  0.227935
 Thermal correction to Gibbs Free Energy=         0.185585
 Sum of electronic and zero-point Energies=           -422.397851
 Sum of electronic and thermal Energies=              -422.389300
 Sum of electronic and thermal Enthalpies=            -422.388356
 Sum of electronic and thermal Free Energies=         -422.430706

                     E (Thermal)             CV                S
                      KCal/Mol        Cal/Mol-Kelvin    Cal/Mol-Kelvin
 Total                  142.439             34.910             89.133
 Electronic               0.000              0.000              0.000
 Translational            0.889              2.981             40.681
 Rotational               0.889              2.981             28.999
 Vibrational            140.662             28.949             19.454
 Vibration     1          0.608              1.936              3.156
 Vibration     2          0.617              1.906              2.708
 Vibration     3          0.648              1.809              1.952
 Vibration     4          0.657              1.779              1.802
 Vibration     5          0.705              1.638              1.318
 Vibration     6          0.713              1.614              1.256
 Vibration     7          0.727              1.576              1.168
 Vibration     8          0.801              1.381              0.823
 Vibration     9          0.818              1.339              0.766
 Vibration    10          0.845              1.275              0.687
 Vibration    11          0.879              1.197              0.600
 Vibration    12          0.928              1.093              0.501

 Optimization completed.
    -- Stationary point found.
 Normal termination of Gaussian 09 at Tue Jun  8 08:35:51 2021.
