 Gaussian 09, Revision D.01,
 Gaussian 09:  ES64L-G09RevD.01 24-Apr-2013

 ------------------------------------------------------------
 #p opt freq n12sx/6-311+g(d,p) scrf=(iefpcm,solvent=ethanol)
 ------------------------------------------------------------

 -----
 TITLE
 -----
 Symbolic Z-matrix:
 Charge =  0 Multiplicity = 1

 SCF Done:  E(RN12SX) =  -1052.09603588     A.U. after   15 cycles
 SCF Done:  E(RN12SX) =  -1052.10325724     A.U. after   13 cycles
 SCF Done:  E(RN12SX) =  -1052.10448137     A.U. after   12 cycles
 SCF Done:  E(RN12SX) =  -1052.10457864     A.U. after   11 cycles
 SCF Done:  E(RN12SX) =  -1052.10461417     A.U. after   11 cycles
 SCF Done:  E(RN12SX) =  -1052.10462360     A.U. after   11 cycles
 SCF Done:  E(RN12SX) =  -1052.10463548     A.U. after   11 cycles
 SCF Done:  E(RN12SX) =  -1052.10467175     A.U. after   12 cycles
 SCF Done:  E(RN12SX) =  -1052.10468537     A.U. after   12 cycles
 SCF Done:  E(RN12SX) =  -1052.10469404     A.U. after   12 cycles
 SCF Done:  E(RN12SX) =  -1052.10470953     A.U. after   10 cycles
 SCF Done:  E(RN12SX) =  -1052.10470892     A.U. after   12 cycles
 SCF Done:  E(RN12SX) =  -1052.10470834     A.U. after   10 cycles
 SCF Done:  E(RN12SX) =  -1052.10470374     A.U. after   11 cycles
 SCF Done:  E(RN12SX) =  -1052.10470171     A.U. after   10 cycles
 SCF Done:  E(RN12SX) =  -1052.10470019     A.U. after   10 cycles
 SCF Done:  E(RN12SX) =  -1052.10469932     A.U. after    9 cycles
 SCF Done:  E(RN12SX) =  -1052.10469887     A.U. after    9 cycles
 SCF Done:  E(RN12SX) =  -1052.10469901     A.U. after    8 cycles
 Optimization completed.
    -- Stationary point found.
 Normal termination of Gaussian 09 at Wed Feb 16 23:48:11 2022.

 ----------------------------------------------------------------------
 #P Geom=AllCheck Guess=TCheck SCRF=Check GenChk RN12SX/6-311+G(d,p) Fr
 eq
 ----------------------------------------------------------------------

 Structure from the checkpoint file:  "NHC15_new1.chk"
 -----
 TITLE
 -----
 Charge =  0 Multiplicity = 1

                         Standard orientation:
 ---------------------------------------------------------------------
 Center     Atomic      Atomic             Coordinates (Angstroms)
 Number     Number       Type             X           Y           Z
 ---------------------------------------------------------------------
      1          7           0        0.845184   -1.882633    0.104830
      2          6           0       -0.424534   -1.961075   -0.107815
      3          7           0       -0.936418   -0.741884   -0.451211
      4          6           0        0.052815    0.194812   -0.486473
      5          7           0        1.113551   -0.552510   -0.142317
      6          6           0       -1.362309   -3.096095    0.058463
      7          8           0       -2.501122   -2.592867    0.723813
      8          6           0       -3.221103   -1.604302    0.016589
      9          6           0       -2.340633   -0.625496   -0.831918
     10          6           0       -3.991925   -0.736774    1.013237
     11          6           0       -3.903989    0.643619    0.442969
     12          6           0       -2.961364    0.715163   -0.575532
     13          6           0       -4.619933    1.773237    0.810766
     14          6           0       -4.380713    2.968310    0.147373
     15          6           0       -3.442952    3.034418   -0.878312
     16          6           0       -2.728874    1.904369   -1.249257
     17          6           0        2.452898   -0.081892   -0.006407
     18          6           0        3.291492   -0.103688   -1.118284
     19          6           0        4.594857    0.353132   -0.959357
     20          6           0        5.064008    0.818797    0.263625
     21          6           0        4.196307    0.815104    1.350529
     22          6           0        2.885328    0.368468    1.239433
     23          6           0        1.964735    0.370112    2.419514
     24          6           0        2.803811   -0.602944   -2.442333
     25          6           0        6.463708    1.334875    0.404323
     26          1           0       -1.632210   -3.532918   -0.907478
     27          1           0       -0.928053   -3.872058    0.678418
     28          1           0       -3.909460   -2.094232   -0.674342
     29          1           0       -2.405453   -0.892595   -1.885441
     30          1           0       -5.016030   -1.078058    1.144561
     31          1           0       -3.503526   -0.790207    1.986628
     32          1           0       -5.357096    1.724713    1.599107
     33          1           0       -4.933050    3.854264    0.424321
     34          1           0       -3.273965    3.969282   -1.391566
     35          1           0       -2.002241    1.951744   -2.045555
     36          1           0        5.258912    0.340762   -1.812657
     37          1           0        4.547690    1.165601    2.311292
     38          1           0        2.472499    0.741505    3.304783
     39          1           0        1.093699    0.997388    2.234647
     40          1           0        1.594627   -0.631913    2.631563
     41          1           0        2.445734   -1.628832   -2.369174
     42          1           0        1.971080   -0.001155   -2.804026
     43          1           0        3.597253   -0.569810   -3.183165
     44          1           0        7.126040    0.893707   -0.336481
     45          1           0        6.491232    2.416267    0.264968
     46          1           0        6.865289    1.125773    1.393192
 ---------------------------------------------------------------------

 SCF Done:  E(RN12SX) =  -1052.10469901     A.U. after    2 cycles

 The electronic state is 1-A.
 Alpha  occ. eigenvalues --  -19.19720 -14.44328 -14.42934 -14.39668 -10.29948
 Alpha  occ. eigenvalues --  -10.29451 -10.29428 -10.28533 -10.26185 -10.25576
 Alpha  occ. eigenvalues --  -10.24203 -10.24192 -10.23952 -10.23821 -10.23797
 Alpha  occ. eigenvalues --  -10.23145 -10.23079 -10.22887 -10.22828 -10.22807
 Alpha  occ. eigenvalues --  -10.22009 -10.21991 -10.21360 -10.21306 -10.21238
 Alpha  occ. eigenvalues --   -1.09727  -1.06071  -0.95387  -0.89708  -0.88049
 Alpha  occ. eigenvalues --   -0.85261  -0.82560  -0.79429  -0.79257  -0.77168
 Alpha  occ. eigenvalues --   -0.75174  -0.73406  -0.70981  -0.70677  -0.68583
 Alpha  occ. eigenvalues --   -0.68044  -0.63980  -0.63584  -0.61159  -0.58776
 Alpha  occ. eigenvalues --   -0.58720  -0.57449  -0.56886  -0.54950  -0.52858
 Alpha  occ. eigenvalues --   -0.51317  -0.50825  -0.49974  -0.47660  -0.47353
 Alpha  occ. eigenvalues --   -0.46564  -0.45932  -0.44843  -0.43783  -0.43063
 Alpha  occ. eigenvalues --   -0.42896  -0.42378  -0.42054  -0.41263  -0.41125
 Alpha  occ. eigenvalues --   -0.41099  -0.40749  -0.40002  -0.39436  -0.39268
 Alpha  occ. eigenvalues --   -0.38074  -0.36719  -0.36142  -0.35707  -0.34721
 Alpha  occ. eigenvalues --   -0.34338  -0.34103  -0.33994  -0.33729  -0.32214
 Alpha  occ. eigenvalues --   -0.29739  -0.28084  -0.26849  -0.25944  -0.24833
 Alpha  occ. eigenvalues --   -0.24331  -0.24268  -0.23494
 Alpha virt. eigenvalues --   -0.03610  -0.02710  -0.02436  -0.02093  -0.01110
 Alpha virt. eigenvalues --   -0.00742  -0.00280  -0.00096   0.00183   0.01087
 Alpha virt. eigenvalues --    0.01460   0.01575   0.01866   0.02247   0.02806

 Mulliken charges:
               1
     1  N   -0.123983
     2  C    0.491886
     3  N    0.467096
     4  C   -0.617836
     5  N    0.673287
     6  C   -0.696302
     7  O   -0.012399
     8  C   -0.686074
     9  C   -0.461148
    10  C   -0.813149
    11  C    0.570452
    12  C    0.198673
    13  C   -0.448552
    14  C   -0.011238
    15  C   -0.220191
    16  C    0.070067
    17  C    0.016815
    18  C    0.401404
    19  C   -1.207088
    20  C    1.076887
    21  C   -0.890454
    22  C    0.336821
    23  C   -0.783440
    24  C   -0.835745
    25  C   -0.414408
    26  H    0.209282
    27  H    0.214084
    28  H    0.227818
    29  H    0.237142
    30  H    0.222379
    31  H    0.235012
    32  H    0.155209
    33  H    0.159589
    34  H    0.157470
    35  H    0.151686
    36  H    0.140940
    37  H    0.141251
    38  H    0.176312
    39  H    0.194546
    40  H    0.192042
    41  H    0.193728
    42  H    0.197213
    43  H    0.176258
    44  H    0.167289
    45  H    0.200156
    46  H    0.169212
 Sum of Mulliken charges =   0.00000

 Dipole moment (field-independent basis, Debye):
    X=             -2.1640    Y=             -1.1975    Z=             -1.3193  Tot=              2.8031
 Quadrupole moment (field-independent basis, Debye-Ang):
   XX=           -121.4980   YY=           -141.6917   ZZ=           -136.6644
   XY=              6.3038   XZ=              0.0618   YZ=              7.3840

  Exact polarizability: 387.895  10.984 327.247 -23.946  -0.045 309.566
 Approx polarizability: 425.376  12.003 380.315 -33.119  -1.570 379.347

                      1                      2                      3
                      A                      A                      A
 Frequencies --     11.9557                20.2397                30.5753
 Red. masses --      3.5062                 3.6150                 1.0885
 Frc consts  --      0.0003                 0.0009                 0.0006
 IR Inten    --      0.0211                 0.4797                 0.6401

                      4                      5                      6
                      A                      A                      A
 Frequencies --     36.0857                47.8064                69.6569
 Red. masses --      3.9415                 4.6581                 4.3491
 Frc consts  --      0.0030                 0.0063                 0.0124
 IR Inten    --      0.2168                 2.2423                 0.8782

                      7                      8                      9
                      A                      A                      A
 Frequencies --     99.3411               115.9465               129.3927
 Red. masses --      1.0361                 1.1665                 2.8100
 Frc consts  --      0.0060                 0.0092                 0.0277
 IR Inten    --      0.7090                 1.6888                 2.1497

                     10                     11                     12
                      A                      A                      A
 Frequencies --    142.9284               169.7025               175.7756
 Red. masses --      5.8477                 3.6769                 4.5314
 Frc consts  --      0.0704                 0.0624                 0.0825
 IR Inten    --      6.9886                 4.8483                 6.4905

                     13                     14                     15
                      A                      A                      A
 Frequencies --    197.3041               214.5322               231.8635
 Red. masses --      3.7137                 4.1167                 2.9204
 Frc consts  --      0.0852                 0.1116                 0.0925
 IR Inten    --      3.7367                 2.3273                 0.1606

                     16                     17                     18
                      A                      A                      A
 Frequencies --    249.4780               274.3750               281.9724
 Red. masses --      3.6859                 2.6233                 2.8315
 Frc consts  --      0.1352                 0.1164                 0.1326
 IR Inten    --      2.6373                 5.0412                 4.4934

                     19                     20                     21
                      A                      A                      A
 Frequencies --    309.2640               345.6784               361.9335
 Red. masses --      3.5048                 4.4157                 5.7456
 Frc consts  --      0.1975                 0.3109                 0.4434
 IR Inten    --      5.9305                 4.7112                 0.2320

                     22                     23                     24
                      A                      A                      A
 Frequencies --    369.4055               422.6555               441.8115
 Red. masses --      3.8306                 4.2907                 3.0717
 Frc consts  --      0.3080                 0.4516                 0.3533
 IR Inten    --      2.2775                 4.6146                 4.5489

                     25                     26                     27
                      A                      A                      A
 Frequencies --    463.2705               491.2000               507.3247
 Red. masses --      5.1097                 5.1499                 3.8344
 Frc consts  --      0.6461                 0.7321                 0.5815
 IR Inten    --     10.0686                 1.6679                 3.2072

                     28                     29                     30
                      A                      A                      A
 Frequencies --    509.7979               530.4765               553.0496
 Red. masses --      3.6377                 3.0472                 3.9003
 Frc consts  --      0.5570                 0.5052                 0.7029
 IR Inten    --      1.3825                 0.0205                 3.3821

                     31                     32                     33
                      A                      A                      A
 Frequencies --    564.8327               586.2556               594.7134
 Red. masses --      4.8086                 4.0763                 3.5146
 Frc consts  --      0.9039                 0.8255                 0.7324
 IR Inten    --      2.4120                 1.1349                 6.4380

                     34                     35                     36
                      A                      A                      A
 Frequencies --    610.6085               625.6921               632.9395
 Red. masses --      5.2598                 5.0706                 3.6765
 Frc consts  --      1.1554                 1.1696                 0.8678
 IR Inten    --      6.0738                 4.4729                 6.3157

                     37                     38                     39
                      A                      A                      A
 Frequencies --    662.7340               684.9174               711.3165
 Red. masses --      5.0798                 5.7614                 5.1640
 Frc consts  --      1.3145                 1.5924                 1.5394
 IR Inten    --     16.0030                 1.9425                 2.9070

                     40                     41                     42
                      A                      A                      A
 Frequencies --    738.8610               765.6744               775.5302
 Red. masses --      4.0675                 1.3456                 4.3355
 Frc consts  --      1.3083                 0.4648                 1.5363
 IR Inten    --      0.1354               106.4833                13.1893

                     43                     44                     45
                      A                      A                      A
 Frequencies --    803.7970               827.9609               847.8100
 Red. masses --      4.0385                 4.6300                 3.5215
 Frc consts  --      1.5373                 1.8700                 1.4913
 IR Inten    --      9.7110                17.9950                 8.8056

                     46                     47                     48
                      A                      A                      A
 Frequencies --    880.7296               885.3269               900.8799
 Red. masses --      1.2797                 1.8887                 3.3406
 Frc consts  --      0.5848                 0.8722                 1.5974
 IR Inten    --     37.6025                 7.5124                 7.3189

                     49                     50                     51
                      A                      A                      A
 Frequencies --    911.9937               916.2132               961.0225
 Red. masses --      1.3023                 2.4460                 2.1715
 Frc consts  --      0.6382                 1.2097                 1.1816
 IR Inten    --      0.0174                 3.6359                 3.4776

                     52                     53                     54
                      A                      A                      A
 Frequencies --    970.2954               974.2304               987.9932
 Red. masses --      1.7331                 3.1589                 4.9857
 Frc consts  --      0.9613                 1.7665                 2.8674
 IR Inten    --      9.1184                31.3814                15.2891

                     55                     56                     57
                      A                      A                      A
 Frequencies --   1004.9769              1020.3490              1029.1793
 Red. masses --      2.2634                 1.3100                 2.3653
 Frc consts  --      1.3469                 0.8036                 1.4761
 IR Inten    --      6.1668                 0.0837                13.3678

                     58                     59                     60
                      A                      A                      A
 Frequencies --   1035.7531              1039.0223              1040.8029
 Red. masses --      1.7040                 2.4211                 1.5021
 Frc consts  --      1.0771                 1.5400                 0.9587
 IR Inten    --     21.3596                18.8776                 2.2713

                     61                     62                     63
                      A                      A                      A
 Frequencies --   1058.9862              1061.3440              1062.2982
 Red. masses --      2.1200                 1.8464                 1.5772
 Frc consts  --      1.4008                 1.2255                 1.0486
 IR Inten    --     10.6228                 5.9476                 7.8097

                     64                     65                     66
                      A                      A                      A
 Frequencies --   1065.2621              1069.0356              1075.5214
 Red. masses --      1.5465                 1.9909                 4.5646
 Frc consts  --      1.0340                 1.3405                 3.1110
 IR Inten    --      0.1402                 0.1261                40.0542

                     67                     68                     69
                      A                      A                      A
 Frequencies --   1106.5569              1133.8113              1156.1092
 Red. masses --      3.1285                 2.0525                 4.8262
 Frc consts  --      2.2570                 1.5546                 3.8006
 IR Inten    --      1.3824                 7.8184               201.3219

                     70                     71                     72
                      A                      A                      A
 Frequencies --   1181.3459              1184.3396              1196.7014
 Red. masses --      1.6071                 1.1038                 1.7361
 Frc consts  --      1.3214                 0.9122                 1.4648
 IR Inten    --     10.4194                 4.7765                16.7381

                     73                     74                     75
                      A                      A                      A
 Frequencies --   1206.3286              1220.2115              1250.0497
 Red. masses --      1.9977                 2.2974                 1.7327
 Frc consts  --      1.7128                 2.0154                 1.5952
 IR Inten    --     12.4826                16.0651                 9.7227

                     76                     77                     78
                      A                      A                      A
 Frequencies --   1253.0924              1264.9502              1284.3208
 Red. masses --      1.5035                 3.4801                 1.3649
 Frc consts  --      1.3910                 3.2809                 1.3265
 IR Inten    --     16.8795                23.4039                 0.0869

                     79                     80                     81
                      A                      A                      A
 Frequencies --   1286.5484              1315.5820              1334.4842
 Red. masses --      1.2997                 2.1042                 1.7001
 Frc consts  --      1.2675                 2.1457                 1.7838
 IR Inten    --     11.0640                 5.0241                 3.5783

                     82                     83                     84
                      A                      A                      A
 Frequencies --   1336.7970              1346.6396              1353.4780
 Red. masses --      4.4241                 3.7980                 6.7963
 Frc consts  --      4.6581                 4.0580                 7.3354
 IR Inten    --     30.6841                 2.1475                 6.5478

                     85                     86                     87
                      A                      A                      A
 Frequencies --   1369.4747              1373.3487              1378.6406
 Red. masses --      1.4880                 2.0162                 1.5214
 Frc consts  --      1.6443                 2.2405                 1.7037
 IR Inten    --     45.2332                 0.5734                61.1553

                     88                     89                     90
                      A                      A                      A
 Frequencies --   1392.8647              1406.4775              1409.8827
 Red. masses --      1.8934                 1.6678                 1.2552
 Frc consts  --      2.1643                 1.9439                 1.4700
 IR Inten    --     25.4832                 8.6279                 4.2974

                     91                     92                     93
                      A                      A                      A
 Frequencies --   1410.6401              1418.6124              1430.2333
 Red. masses --      1.2510                 1.4767                 3.6723
 Frc consts  --      1.4667                 1.7509                 4.4259
 IR Inten    --      4.1243                 0.3650                20.4485

                     94                     95                     96
                      A                      A                      A
 Frequencies --   1449.9113              1454.3953              1476.8976
 Red. masses --      1.8081                 3.6362                 1.0466
 Frc consts  --      2.2395                 4.5317                 1.3451
 IR Inten    --      3.4488                58.1825                18.3037

                     97                     98                     99
                      A                      A                      A
 Frequencies --   1478.7924              1479.3074              1484.7616
 Red. masses --      1.1059                 1.0505                 1.0936
 Frc consts  --      1.4249                 1.3545                 1.4204
 IR Inten    --     11.4083                11.7140                 9.6447

                    100                    101                    102
                      A                      A                      A
 Frequencies --   1487.2774              1488.8370              1496.2151
 Red. masses --      1.2750                 1.0981                 1.0917
 Frc consts  --      1.6617                 1.4341                 1.4399
 IR Inten    --     17.4912                 5.3656                11.6015

                    103                    104                    105
                      A                      A                      A
 Frequencies --   1507.6770              1510.3239              1531.5384
 Red. masses --      2.5815                 1.6083                 2.7585
 Frc consts  --      3.4572                 2.1615                 3.8122
 IR Inten    --      8.4722                39.7760                23.5330

                    106                    107                    108
                      A                      A                      A
 Frequencies --   1551.1842              1654.6188              1656.1327
 Red. masses --      3.6243                 6.9067                 8.0007
 Frc consts  --      5.1381                11.1408                12.9290
 IR Inten    --     65.8920                 1.7035                21.4505

                    109                    110                    111
                      A                      A                      A
 Frequencies --   1670.7736              1675.6412              1679.6664
 Red. masses --      6.9694                 7.1174                 8.7637
 Frc consts  --     11.4626                11.7742                14.5674
 IR Inten    --     67.3930                 8.5806                18.9715

                    112                    113                    114
                      A                      A                      A
 Frequencies --   3049.7938              3069.3638              3069.8656
 Red. masses --      1.0710                 1.0857                 1.0396
 Frc consts  --      5.8690                 6.0261                 5.7723
 IR Inten    --     47.5915                47.2826                32.0452

                    115                    116                    117
                      A                      A                      A
 Frequencies --   3075.1924              3075.8512              3088.7042
 Red. masses --      1.0374                 1.0374                 1.0640
 Frc consts  --      5.7799                 5.7829                 5.9805
 IR Inten    --     38.8345                13.0767                20.4050

                    118                    119                    120
                      A                      A                      A
 Frequencies --   3101.9312              3134.9499              3137.1274
 Red. masses --      1.0857                 1.0971                 1.1004
 Frc consts  --      6.1547                 6.3525                 6.3804
 IR Inten    --     34.5564                20.3583                13.3425

                    121                    122                    123
                      A                      A                      A
 Frequencies --   3137.3202              3143.3031              3162.7262
 Red. masses --      1.1003                 1.1004                 1.1032
 Frc consts  --      6.3811                 6.4058                 6.5018
 IR Inten    --      9.1436                25.8609                21.1743

                    124                    125                    126
                      A                      A                      A
 Frequencies --   3170.5111              3171.4783              3184.3562
 Red. masses --      1.1021                 1.1020                 1.0947
 Frc consts  --      6.5271                 6.5308                 6.5402
 IR Inten    --     24.3489                23.8904                 9.4743

                    127                    128                    129
                      A                      A                      A
 Frequencies --   3205.5754              3208.0595              3213.6433
 Red. masses --      1.0909                 1.0913                 1.0867
 Frc consts  --      6.6046                 6.6173                 6.6126
 IR Inten    --     28.2256                16.6445                 1.4541

                    130                    131                    132
                      A                      A                      A
 Frequencies --   3224.9525              3233.9283              3245.3739
 Red. masses --      1.0906                 1.0949                 1.0969
 Frc consts  --      6.6830                 6.7468                 6.8066
 IR Inten    --     12.4053                26.7819                10.8412

 - Thermochemistry -
 -------------------
 Temperature   298.150 Kelvin.  Pressure   1.00000 Atm.
 Atom     1 has atomic number  7 and mass  14.00307

 Molecular mass:   331.16846 amu.
 Principal axes and moments of inertia in atomic units:
                           1         2         3
     Eigenvalues --  4216.91076********************
           X            0.99998   0.00556  -0.00137
           Y           -0.00553   0.99981   0.01855
           Z            0.00147  -0.01855   0.99983
 This molecule is an asymmetric top.
 Rotational symmetry number  1.
 Warning -- assumption of classical behavior for rotation
           may cause significant error
 Rotational temperatures (Kelvin)      0.02054     0.00608     0.00547
 Rotational constants (GHZ):           0.42798     0.12674     0.11391
 Zero-point vibrational energy    1005037.4 (Joules/Mol)
                                  240.20971 (Kcal/Mol)
 Warning -- explicit consideration of  34 degrees of freedom as
           vibrations may cause significant error
 Vibrational temperatures:     17.20    29.12    43.99    51.92    68.78
          (Kelvin)            100.22   142.93   166.82   186.17   205.64
                              244.16   252.90   283.88   308.66   333.60
                              358.94   394.76   405.69   444.96   497.35
                              520.74   531.49   608.11   635.67   666.54
                              706.73   729.93   733.48   763.24   795.71
                              812.67   843.49   855.66   878.53   900.23
                              910.66   953.53   985.44  1023.42  1063.05
                             1101.63  1115.81  1156.48  1191.25  1219.81
                             1267.17  1273.79  1296.16  1312.15  1318.22
                             1382.70  1396.04  1401.70  1421.50  1445.94
                             1468.05  1480.76  1490.22  1494.92  1497.48
                             1523.64  1527.04  1528.41  1532.67  1538.10
                             1547.43  1592.09  1631.30  1663.38  1699.69
                             1704.00  1721.78  1735.64  1755.61  1798.54
                             1802.92  1819.98  1847.85  1851.05  1892.83
                             1920.02  1923.35  1937.51  1947.35  1970.37
                             1975.94  1983.55  2004.02  2023.60  2028.50
                             2029.59  2041.06  2057.78  2086.10  2092.55
                             2124.92  2127.65  2128.39  2136.24  2139.86
                             2142.10  2152.72  2169.21  2173.02  2203.54
                             2231.81  2380.62  2382.80  2403.87  2410.87
                             2416.66  4387.97  4416.12  4416.85  4424.51
                             4425.46  4443.95  4462.98  4510.49  4513.62
                             4513.90  4522.51  4550.45  4561.65  4563.04
                             4581.57  4612.10  4615.68  4623.71  4639.98
                             4652.90  4669.36

 Zero-point correction=                           0.382799 (Hartree/Particle)
 Thermal correction to Energy=                    0.404147
 Thermal correction to Enthalpy=                  0.405092
 Thermal correction to Gibbs Free Energy=         0.329364
 Sum of electronic and zero-point Energies=          -1051.721900
 Sum of electronic and thermal Energies=             -1051.700552
 Sum of electronic and thermal Enthalpies=           -1051.699607
 Sum of electronic and thermal Free Energies=        -1051.775335

                     E (Thermal)             CV                S
                      KCal/Mol        Cal/Mol-Kelvin    Cal/Mol-Kelvin
 Total                  253.606             82.715            159.383
 Electronic               0.000              0.000              0.000
 Translational            0.889              2.981             43.287
 Rotational               0.889              2.981             35.208
 Vibrational            251.829             76.753             80.888
 Vibration     1          0.593              1.987              7.656
 Vibration     2          0.593              1.986              6.611
 Vibration     3          0.594              1.984              5.792
 Vibration     4          0.594              1.982              5.463
 Vibration     5          0.595              1.978              4.906
 Vibration     6          0.598              1.969              4.163
 Vibration     7          0.604              1.950              3.467
 Vibration     8          0.608              1.936              3.167
 Vibration     9          0.612              1.924              2.955
 Vibration    10          0.616              1.910              2.764
 Vibration    11          0.625              1.880              2.439
 Vibration    12          0.628              1.872              2.373
 Vibration    13          0.637              1.844              2.158
 Vibration    14          0.644              1.819              2.005
 Vibration    15          0.653              1.792              1.864
 Vibration    16          0.662              1.764              1.734
 Vibration    17          0.677              1.721              1.568
 Vibration    18          0.681              1.707              1.522
 Vibration    19          0.699              1.656              1.366
 Vibration    20          0.724              1.584              1.186
 Vibration    21          0.736              1.551              1.114
 Vibration    22          0.742              1.535              1.082
 Vibration    23          0.785              1.421              0.883
 Vibration    24          0.802              1.379              0.821
 Vibration    25          0.821              1.332              0.757
 Vibration    26          0.847              1.270              0.680
 Vibration    27          0.863              1.234              0.640
 Vibration    28          0.865              1.228              0.634
 Vibration    29          0.885              1.183              0.586
 Vibration    30          0.908              1.133              0.538
 Vibration    31          0.921              1.107              0.514
 Vibration    32          0.943              1.061              0.474
 Vibration    33          0.952              1.043              0.459
 Vibration    34          0.970              1.009              0.432

 Optimization completed on the basis of negligible forces.
    -- Stationary point found.
 Normal termination of Gaussian 09 at Thu Feb 17 07:38:18 2022.
