 Gaussian 09, Revision D.01,
 Gaussian 09:  ES64L-G09RevD.01 24-Apr-2013

 ----------------------------------------------------------
 #p opt freq n12sx/6-311+g(d,p) scrf=(iefpcm,solvent=water)
 ----------------------------------------------------------

 -----
 TITLE
 -----
 Symbolic Z-matrix:
 Charge =  0 Multiplicity = 1

 SCF Done:  E(RN12SX) =  -615.571159978     A.U. after   14 cycles
 SCF Done:  E(RN12SX) =  -615.572500825     A.U. after   11 cycles
 SCF Done:  E(RN12SX) =  -615.572962755     A.U. after   11 cycles
 SCF Done:  E(RN12SX) =  -615.573024268     A.U. after   10 cycles
 SCF Done:  E(RN12SX) =  -615.573032194     A.U. after    9 cycles
 SCF Done:  E(RN12SX) =  -615.573036571     A.U. after    8 cycles
 SCF Done:  E(RN12SX) =  -615.573036748     A.U. after    7 cycles
 Optimization completed.
    -- Stationary point found.
 Normal termination of Gaussian 09 at Sat Jun 19 14:39:20 2021.

 ----------------------------------------------------------------------
 #P Geom=AllCheck Guess=TCheck SCRF=Check GenChk RN12SX/6-311+G(d,p) Fr
 eq
 ----------------------------------------------------------------------

 Structure from the checkpoint file:  "NHC11.chk"
 -----
 TITLE
 -----
 Charge =  0 Multiplicity = 1

                         Standard orientation:
 ---------------------------------------------------------------------
 Center     Atomic      Atomic             Coordinates (Angstroms)
 Number     Number       Type             X           Y           Z
 ---------------------------------------------------------------------
      1          6           0        0.699845    0.546558    0.000203
      2          6           0       -0.699857    0.546547   -0.000079
      3          7           0       -1.076684   -0.788562   -0.000161
      4          6           0        0.000031   -1.614160   -0.000372
      5          7           0        1.076722   -0.788519   -0.000114
      6          6           0        1.415943    1.736814    0.000383
      7          6           0        0.697655    2.921467    0.000176
      8          6           0       -0.697692    2.921438   -0.000249
      9          6           0       -1.415958    1.736779   -0.000387
     10          6           0       -2.444351   -1.310496   -0.000062
     11          6           0       -3.192476   -0.930192   -1.268442
     12          6           0       -3.191890   -0.931318    1.269009
     13          6           0        2.444389   -1.310504    0.000032
     14          6           0        3.192083   -0.930213    1.268663
     15          6           0        3.192252   -0.931260   -1.268793
     16          1           0        2.493065    1.753534    0.000729
     17          1           0        1.229322    3.861023    0.000288
     18          1           0       -1.229390    3.860977   -0.000372
     19          1           0       -2.493095    1.753460   -0.000631
     20          1           0       -2.301882   -2.388170   -0.000551
     21          1           0       -2.635233   -1.237938   -2.150613
     22          1           0       -4.158242   -1.430742   -1.284345
     23          1           0       -3.373104    0.140291   -1.334026
     24          1           0       -2.634793   -1.240919    2.150624
     25          1           0       -4.158178   -1.430876    1.284391
     26          1           0       -3.371370    0.139246    1.336209
     27          1           0        2.301918   -2.388204    0.000365
     28          1           0        2.634911   -1.238721    2.150601
     29          1           0        4.158211   -1.430037    1.284497
     30          1           0        3.371900    0.140382    1.334731
     31          1           0        2.635243   -1.240477   -2.150593
     32          1           0        4.158319   -1.431247   -1.284038
     33          1           0        3.372277    0.139221   -1.335821
 ---------------------------------------------------------------------

 SCF Done:  E(RN12SX) =  -615.573036748     A.U. after    1 cycles

 The electronic state is 1-A.
 Alpha  occ. eigenvalues --  -14.41070 -14.41066 -10.26605 -10.26593 -10.26592
 Alpha  occ. eigenvalues --  -10.26548 -10.24814 -10.23451 -10.23449 -10.22826
 Alpha  occ. eigenvalues --  -10.22768 -10.20946 -10.20945 -10.20945 -10.20944
 Alpha  occ. eigenvalues --   -1.03471  -0.92847  -0.86453  -0.81494  -0.77755
 Alpha  occ. eigenvalues --   -0.75227  -0.74783  -0.69519  -0.69488  -0.65443
 Alpha  occ. eigenvalues --   -0.63400  -0.62537  -0.58160  -0.56867  -0.51501
 Alpha  occ. eigenvalues --   -0.51097  -0.48280  -0.47086  -0.46521  -0.45077
 Alpha  occ. eigenvalues --   -0.44906  -0.43612  -0.43133  -0.42999  -0.40481
 Alpha  occ. eigenvalues --   -0.39106  -0.39084  -0.38291  -0.37678  -0.36639
 Alpha  occ. eigenvalues --   -0.36024  -0.35622  -0.35557  -0.33467  -0.33378
 Alpha  occ. eigenvalues --   -0.32934  -0.29939  -0.23477  -0.23300  -0.22919
 Alpha virt. eigenvalues --   -0.03830  -0.00761  -0.00714   0.00215   0.00646
 Alpha virt. eigenvalues --    0.01561   0.01796   0.02127   0.02331   0.02452
 Alpha virt. eigenvalues --    0.02513   0.04275   0.04672   0.04767   0.05050

 Mulliken charges:
               1
     1  C    0.288123
     2  C    0.288195
     3  N    0.452153
     4  C   -0.003056
     5  N    0.452219
     6  C   -0.394954
     7  C   -0.527087
     8  C   -0.527129
     9  C   -0.394982
    10  C   -0.409988
    11  C   -0.459419
    12  C   -0.459334
    13  C   -0.410016
    14  C   -0.459428
    15  C   -0.459284
    16  H    0.160093
    17  H    0.159261
    18  H    0.159261
    19  H    0.160085
    20  H    0.175227
    21  H    0.168522
    22  H    0.171058
    23  H    0.169115
    24  H    0.168491
    25  H    0.171033
    26  H    0.169195
    27  H    0.175242
    28  H    0.168521
    29  H    0.171041
    30  H    0.169111
    31  H    0.168496
    32  H    0.171034
    33  H    0.169202
 Sum of Mulliken charges =   0.00000

 Dipole moment (field-independent basis, Debye):
    X=              0.0001    Y=              2.3619    Z=              0.0011  Tot=              2.3619
 Quadrupole moment (field-independent basis, Debye-Ang):
   XX=            -71.6382   YY=            -93.8642   ZZ=            -94.4346
   XY=              0.0004   XZ=              0.0023   YZ=             -0.0024

  Exact polarizability: 242.860   0.000 263.960   0.012   0.003 161.748
 Approx polarizability: 275.604   0.000 303.686   0.017   0.003 177.087

                      1                      2                      3
                      A                      A                      A
 Frequencies --     52.6738                73.4527               102.1811
 Red. masses --      3.0401                 2.3914                 2.7873
 Frc consts  --      0.0050                 0.0076                 0.0171
 IR Inten    --      1.3876                 0.0000                 3.6075

                      4                      5                      6
                      A                      A                      A
 Frequencies --    105.1560               159.3374               174.7357
 Red. masses --      3.5717                 2.8507                 3.1807
 Frc consts  --      0.0233                 0.0426                 0.0572
 IR Inten    --      0.0000                 2.9064                 0.5628

                      7                      8                      9
                      A                      A                      A
 Frequencies --    199.4806               203.3535               232.1754
 Red. masses --      1.1233                 1.0993                 1.2410
 Frc consts  --      0.0263                 0.0268                 0.0394
 IR Inten    --      0.0000                 0.2778                 0.0774

                     10                     11                     12
                      A                      A                      A
 Frequencies --    232.2994               237.6845               239.5076
 Red. masses --      1.0999                 3.0039                 5.2222
 Frc consts  --      0.0350                 0.1000                 0.1765
 IR Inten    --      0.3214                 0.0001                 1.4487

                     13                     14                     15
                      A                      A                      A
 Frequencies --    270.0688               337.1893               394.2280
 Red. masses --      2.1191                 2.3616                 3.7875
 Frc consts  --      0.0911                 0.1582                 0.3468
 IR Inten    --      0.0008                 2.0422                20.3387

                     16                     17                     18
                      A                      A                      A
 Frequencies --    412.0929               445.8969               448.5370
 Red. masses --      2.8247                 3.0869                 2.4875
 Frc consts  --      0.2826                 0.3616                 0.2949
 IR Inten    --      0.2982                 3.7722                 2.2921

                     19                     20                     21
                      A                      A                      A
 Frequencies --    486.0956               521.6879               550.4366
 Red. masses --      4.2206                 4.5124                 4.7287
 Frc consts  --      0.5876                 0.7236                 0.8441
 IR Inten    --      0.0000                 0.0392                29.7831

                     22                     23                     24
                      A                      A                      A
 Frequencies --    616.4117               648.8985               650.0647
 Red. masses --      4.0861                 3.1458                 3.5554
 Frc consts  --      0.9147                 0.7804                 0.8852
 IR Inten    --      0.0000                 0.4086                 0.4095

                     25                     26                     27
                      A                      A                      A
 Frequencies --    651.1935               752.4577               765.7573
 Red. masses --      6.2618                 4.6841                 1.2828
 Frc consts  --      1.5645                 1.5626                 0.4432
 IR Inten    --      6.5031                 3.8252               136.0190

                     28                     29                     30
                      A                      A                      A
 Frequencies --    793.2743               797.2785               882.1913
 Red. masses --      4.5716                 5.3435                 1.4403
 Frc consts  --      1.6950                 2.0012                 0.6604
 IR Inten    --      0.0001                17.5590                 0.0000

                     31                     32                     33
                      A                      A                      A
 Frequencies --    903.4492               905.6691               939.9679
 Red. masses --      2.5393                 2.3767                 1.1746
 Frc consts  --      1.2211                 1.1486                 0.6114
 IR Inten    --     13.0702                 5.3798                 4.6874

                     34                     35                     36
                      A                      A                      A
 Frequencies --    940.4284               962.6776               963.8277
 Red. masses --      1.1744                 1.4393                 1.4435
 Frc consts  --      0.6120                 0.7859                 0.7901
 IR Inten    --      0.0001                 0.0559                 0.0000

                     37                     38                     39
                      A                      A                      A
 Frequencies --    970.4825              1001.3598              1008.0467
 Red. masses --      1.3565                 2.5745                 1.2731
 Frc consts  --      0.7528                 1.5210                 0.7622
 IR Inten    --      3.9322                 1.4309                 0.0000

                     40                     41                     42
                      A                      A                      A
 Frequencies --   1056.3164              1074.9362              1116.6929
 Red. masses --      2.1659                 1.9879                 2.3033
 Frc consts  --      1.4239                 1.3534                 1.6923
 IR Inten    --     28.6968                12.1675                69.9506

                     43                     44                     45
                      A                      A                      A
 Frequencies --   1167.6397              1168.2823              1172.8861
 Red. masses --      2.2121                 2.2012                 1.4246
 Frc consts  --      1.7770                 1.7701                 1.1547
 IR Inten    --      0.0148                31.2919                69.5408

                     46                     47                     48
                      A                      A                      A
 Frequencies --   1173.7962              1191.8197              1202.3354
 Red. masses --      1.5045                 1.5276                 1.9635
 Frc consts  --      1.2213                 1.2785                 1.6723
 IR Inten    --      0.2190                 0.8819                25.5628

                     49                     50                     51
                      A                      A                      A
 Frequencies --   1210.6804              1274.1985              1304.4508
 Red. masses --      2.2920                 3.2656                 2.8201
 Frc consts  --      1.9794                 3.1238                 2.8273
 IR Inten    --      0.3605                 0.0062                74.2883

                     52                     53                     54
                      A                      A                      A
 Frequencies --   1326.4257              1367.0954              1367.6955
 Red. masses --      1.5467                 1.3536                 1.3536
 Frc consts  --      1.6034                 1.4905                 1.4918
 IR Inten    --     13.6192                 0.0109                 4.2368

                     55                     56                     57
                      A                      A                      A
 Frequencies --   1382.6833              1399.8985              1399.9160
 Red. masses --      3.8905                 3.8167                 6.5607
 Frc consts  --      4.3823                 4.4069                 7.5754
 IR Inten    --     30.6844                53.2678               298.0398

                     58                     59                     60
                      A                      A                      A
 Frequencies --   1405.9557              1406.1027              1406.7388
 Red. masses --      1.2939                 1.2962                 1.4439
 Frc consts  --      1.5069                 1.5099                 1.6835
 IR Inten    --      0.0503                45.5459                 1.1882

                     61                     62                     63
                      A                      A                      A
 Frequencies --   1421.4644              1422.4616              1440.9788
 Red. masses --      1.2708                 1.2827                 2.1914
 Frc consts  --      1.5129                 1.5291                 2.6809
 IR Inten    --      1.7069                21.1077                24.6232

                     64                     65                     66
                      A                      A                      A
 Frequencies --   1483.3714              1483.4418              1486.6652
 Red. masses --      1.0413                 1.0412                 1.0542
 Frc consts  --      1.3499                 1.3500                 1.3728
 IR Inten    --      0.0000                 0.0616                 0.0212

                     67                     68                     69
                      A                      A                      A
 Frequencies --   1486.6939              1494.3244              1495.5689
 Red. masses --      1.0545                 1.0663                 1.0871
 Frc consts  --      1.3732                 1.4029                 1.4327
 IR Inten    --      3.6846                 7.9589                 7.6157

                     70                     71                     72
                      A                      A                      A
 Frequencies --   1505.0332              1506.6199              1522.4757
 Red. masses --      1.0712                 1.0763                 2.7256
 Frc consts  --      1.4296                 1.4395                 3.7223
 IR Inten    --      0.1563                18.5268                 3.2900

                     73                     74                     75
                      A                      A                      A
 Frequencies --   1524.0542              1662.1664              1670.3764
 Red. masses --      2.9896                 7.4004                 7.0297
 Frc consts  --      4.0913                12.0464                11.5562
 IR Inten    --    130.3775                 0.0027                12.9866

                     76                     77                     78
                      A                      A                      A
 Frequencies --   3079.2901              3079.3406              3083.5478
 Red. masses --      1.0354                 1.0354                 1.0363
 Frc consts  --      5.7845                 5.7846                 5.8053
 IR Inten    --     16.8675                52.0533                30.9819

                     79                     80                     81
                      A                      A                      A
 Frequencies --   3083.7993              3126.3086              3126.5343
 Red. masses --      1.0362                 1.0870                 1.0869
 Frc consts  --      5.8061                 6.2595                 6.2601
 IR Inten    --      1.0819                 2.5403                 2.4137

                     82                     83                     84
                      A                      A                      A
 Frequencies --   3158.4565              3158.5287              3160.5175
 Red. masses --      1.1029                 1.1029                 1.1026
 Frc consts  --      6.4823                 6.4826                 6.4892
 IR Inten    --      9.1258                21.8692                74.0645

                     85                     86                     87
                      A                      A                      A
 Frequencies --   3160.6049              3161.4545              3161.4659
 Red. masses --      1.1026                 1.1028                 1.1028
 Frc consts  --      6.4894                 6.4939                 6.4940
 IR Inten    --     15.8683                 0.5758                 9.2613

                     88                     89                     90
                      A                      A                      A
 Frequencies --   3168.4784              3168.5638              3225.1916
 Red. masses --      1.1002                 1.1002                 1.0872
 Frc consts  --      6.5078                 6.5081                 6.6633
 IR Inten    --     11.7046               142.8392                 2.9062

                     91                     92                     93
                      A                      A                      A
 Frequencies --   3239.3375              3261.6960              3263.8583
 Red. masses --      1.0928                 1.0935                 1.0949
 Frc consts  --      6.7562                 6.8540                 6.8720
 IR Inten    --     18.8611                15.2799                 2.5371

 - Thermochemistry -
 -------------------
 Temperature   298.150 Kelvin.  Pressure   1.00000 Atm.
 Atom     1 has atomic number  6 and mass  12.00000

 Molecular mass:   202.14700 amu.
 Principal axes and moments of inertia in atomic units:
                           1         2         3
     Eigenvalues --  2099.171563628.482124943.83630
           X            1.00000   0.00000   0.00000
           Y            0.00000   1.00000   0.00000
           Z            0.00000   0.00000   1.00000
 This molecule is an asymmetric top.
 Rotational symmetry number  1.
 Warning -- assumption of classical behavior for rotation
           may cause significant error
 Rotational temperatures (Kelvin)      0.04126     0.02387     0.01752
 Rotational constants (GHZ):           0.85974     0.49738     0.36505
 Zero-point vibrational energy     760112.7 (Joules/Mol)
                                  181.67130 (Kcal/Mol)
 Warning -- explicit consideration of  22 degrees of freedom as
           vibrations may cause significant error
 Vibrational temperatures:     75.79   105.68   147.02   151.30   229.25
          (Kelvin)            251.41   287.01   292.58   334.05   334.23
                              341.97   344.60   388.57   485.14   567.21
                              592.91   641.55   645.34   699.38   750.59
                              791.95   886.88   933.62   935.30   936.92
                             1082.62  1101.75  1141.34  1147.10  1269.27
                             1299.86  1303.05  1352.40  1353.07  1385.08
                             1386.73  1396.31  1440.73  1450.35  1519.80
                             1546.59  1606.67  1679.97  1680.90  1687.52
                             1688.83  1714.76  1729.89  1741.90  1833.29
                             1876.81  1908.43  1966.94  1967.81  1989.37
                             2014.14  2014.16  2022.85  2023.07  2023.98
                             2045.17  2046.60  2073.24  2134.24  2134.34
                             2138.98  2139.02  2150.00  2151.79  2165.40
                             2167.69  2190.50  2192.77  2391.48  2403.30
                             4430.41  4430.48  4436.53  4436.89  4498.06
                             4498.38  4544.31  4544.41  4547.27  4547.40
                             4548.62  4548.64  4558.73  4558.85  4640.33
                             4660.68  4692.85  4695.96

 Zero-point correction=                           0.289512 (Hartree/Particle)
 Thermal correction to Energy=                    0.304129
 Thermal correction to Enthalpy=                  0.305073
 Thermal correction to Gibbs Free Energy=         0.248724
 Sum of electronic and zero-point Energies=           -615.283525
 Sum of electronic and thermal Energies=              -615.268908
 Sum of electronic and thermal Enthalpies=            -615.267963
 Sum of electronic and thermal Free Energies=         -615.324313

                     E (Thermal)             CV                S
                      KCal/Mol        Cal/Mol-Kelvin    Cal/Mol-Kelvin
 Total                  190.844             56.775            118.598
 Electronic               0.000              0.000              0.000
 Translational            0.889              2.981             41.816
 Rotational               0.889              2.981             31.999
 Vibrational            189.066             50.813             44.783
 Vibration     1          0.596              1.977              4.714
 Vibration     2          0.599              1.967              4.059
 Vibration     3          0.604              1.947              3.412
 Vibration     4          0.605              1.945              3.356
 Vibration     5          0.621              1.892              2.558
 Vibration     6          0.627              1.874              2.384
 Vibration     7          0.638              1.841              2.138
 Vibration     8          0.639              1.835              2.103
 Vibration     9          0.653              1.792              1.862
 Vibration    10          0.653              1.792              1.861
 Vibration    11          0.656              1.783              1.820
 Vibration    12          0.657              1.780              1.807
 Vibration    13          0.674              1.728              1.596
 Vibration    14          0.718              1.601              1.225
 Vibration    15          0.761              1.483              0.984
 Vibration    16          0.776              1.444              0.919
 Vibration    17          0.805              1.370              0.808
 Vibration    18          0.808              1.364              0.800
 Vibration    19          0.842              1.281              0.694
 Vibration    20          0.877              1.202              0.606
 Vibration    21          0.906              1.139              0.543
 Vibration    22          0.976              0.997              0.422

 Normal termination of Gaussian 09 at Sat Jun 19 17:09:49 2021.
