 Gaussian 09, Revision D.01,
 Gaussian 09:  ES64L-G09RevD.01 24-Apr-2013

 ----------------------------------------------------------
 #p opt freq n12sx/6-311+g(d,p) scrf=(iefpcm,solvent=water)
 ----------------------------------------------------------

 -----
 TITLE
 -----
 Symbolic Z-matrix:
 Charge =  0 Multiplicity = 1

 SCF Done:  E(RN12SX) =  -611.187061485     A.U. after   13 cycles
 SCF Done:  E(RN12SX) =  -611.187372904     A.U. after   11 cycles
 SCF Done:  E(RN12SX) =  -611.187402026     A.U. after   10 cycles
 SCF Done:  E(RN12SX) =  -611.187399399     A.U. after   10 cycles
 SCF Done:  E(RN12SX) =  -611.187406676     A.U. after    8 cycles
 SCF Done:  E(RN12SX) =  -611.187407132     A.U. after    9 cycles
 SCF Done:  E(RN12SX) =  -611.187407342     A.U. after    7 cycles
 SCF Done:  E(RN12SX) =  -611.187407360     A.U. after    6 cycles
 Optimization completed.
    -- Stationary point found.

 1\1\GINC-RENIO\FOpt\RN12SX\6-311+G(d,p)\C9H14N2O2\USER\20-Jun-2021\0\\
 #p opt freq n12sx/6-311+g(d,p) scrf=(iefpcm,solvent=water)\\TITLE\\0,1
 \C,0.6286545805,1.3415808295,0.0161848503\C,-0.8861133006,1.0814116671
 ,0.0125962642\N,-0.9851676175,-0.2907402308,0.0015164855\C,0.234591598
 ,-0.9036006059,-0.002224672\N,1.1799281981,0.0811346337,0.0064976004\O
 ,-1.7486273378,1.9116980901,0.0184488754\O,1.1646523399,2.4120804283,0
 .0254883058\C,-2.2464447764,-1.0486084446,-0.0057701541\C,-3.038677275
 6,-0.7693531933,-1.2715536609\C,-3.0413009692,-0.7894417564,1.26263607

 Normal termination of Gaussian 09 at Sun Jun 20 23:49:38 2021.

 ----------------------------------------------------------------------
 #P Geom=AllCheck Guess=TCheck SCRF=Check GenChk RN12SX/6-311+G(d,p) Fr
 eq
 ----------------------------------------------------------------------

 Structure from the checkpoint file:  "NHC19.chk"
 -----
 TITLE
 -----
 Charge =  0 Multiplicity = 1

                         Standard orientation:
 ---------------------------------------------------------------------
 Center     Atomic      Atomic             Coordinates (Angstroms)
 Number     Number       Type             X           Y           Z
 ---------------------------------------------------------------------
      1          6           0       -0.768474    0.982088   -0.000230
      2          6           0        0.768478    0.982092   -0.000284
      3          7           0        1.098405   -0.353529    0.000178
      4          6           0        0.000005   -1.164049    0.000553
      5          7           0       -1.098401   -0.353527    0.000403
      6          8           0        1.477979    1.946431   -0.000716
      7          8           0       -1.477969    1.946435   -0.000749
      8          6           0        2.469784   -0.886967    0.000286
      9          6           0        3.206309   -0.486955    1.267307
     10          6           0        3.206289   -0.487645   -1.266963
     11          6           0       -2.469787   -0.886976    0.000527
     12          6           0       -3.205901   -0.488514   -1.267218
     13          6           0       -3.206713   -0.486079    1.267033
     14          1           0        2.322295   -1.964008    0.000575
     15          1           0        2.656049   -0.798828    2.152278
     16          1           0        4.180366   -0.970198    1.284954
     17          1           0        3.360558    0.588453    1.311628
     18          1           0        2.655857   -0.799710   -2.151760
     19          1           0        4.180201   -0.971185   -1.284513
     20          1           0        3.360851    0.587698   -1.311725
     21          1           0       -2.322283   -1.964016    0.001617
     22          1           0       -2.655261   -0.801283   -2.151634
     23          1           0       -4.179875   -0.971931   -1.284699
     24          1           0       -3.360323    0.586821   -1.312796
     25          1           0       -2.656542   -0.796963    2.152409
     26          1           0       -4.180588   -0.969672    1.284897
     27          1           0       -3.361350    0.589310    1.310359
 ---------------------------------------------------------------------

 SCF Done:  E(RN12SX) =  -611.187407360     A.U. after    1 cycles

 The electronic state is 1-A.
 Alpha  occ. eigenvalues --  -19.20148 -19.20145 -14.43324 -14.43321 -10.36956
 Alpha  occ. eigenvalues --  -10.36934 -10.29981 -10.27622 -10.27621 -10.21225
 Alpha  occ. eigenvalues --  -10.21224 -10.21224 -10.21224  -1.11341  -1.08007
 Alpha  occ. eigenvalues --   -1.03701  -0.94572  -0.82808  -0.78376  -0.72922
 Alpha  occ. eigenvalues --   -0.69885  -0.69845  -0.66592  -0.64339  -0.59549
 Alpha  occ. eigenvalues --   -0.56671  -0.51046  -0.50454  -0.49929  -0.47796
 Alpha  occ. eigenvalues --   -0.47645  -0.45416  -0.44842  -0.44434  -0.42766
 Alpha  occ. eigenvalues --   -0.41160  -0.39407  -0.38830  -0.38411  -0.37648
 Alpha  occ. eigenvalues --   -0.37098  -0.36147  -0.35776  -0.35669  -0.34389
 Alpha  occ. eigenvalues --   -0.33338  -0.29566  -0.28275  -0.24592
 Alpha virt. eigenvalues --   -0.12494  -0.00612  -0.00119   0.00288   0.01095
 Alpha virt. eigenvalues --    0.01665   0.02248   0.02503   0.02685   0.04177
 Alpha virt. eigenvalues --    0.04834   0.05273   0.05363   0.05465   0.05978

 Mulliken charges:
               1
     1  C    0.106011
     2  C    0.105975
     3  N    0.334933
     4  C   -0.206049
     5  N    0.334915
     6  O   -0.307095
     7  O   -0.307101
     8  C   -0.362748
     9  C   -0.459731
    10  C   -0.459763
    11  C   -0.362746
    12  C   -0.459708
    13  C   -0.459778
    14  H    0.186724
    15  H    0.170131
    16  H    0.176452
    17  H    0.185770
    18  H    0.170128
    19  H    0.176458
    20  H    0.185774
    21  H    0.186722
    22  H    0.170127
    23  H    0.176461
    24  H    0.185768
    25  H    0.170129
    26  H    0.176459
    27  H    0.185781
 Sum of Mulliken charges =   0.00000

 Dipole moment (field-independent basis, Debye):
    X=              0.0000    Y=             -4.0827    Z=              0.0018  Tot=              4.0827
 Quadrupole moment (field-independent basis, Debye-Ang):
   XX=            -66.1132   YY=            -93.6647   ZZ=            -75.0671
   XY=              0.0002   XZ=             -0.0006   YZ=              0.0077

  Exact polarizability: 181.284   0.000 166.162  -0.001  -0.014 128.551
 Approx polarizability: 189.483   0.000 199.266   0.000  -0.026 139.468

                      1                      2                      3
                      A                      A                      A
 Frequencies --     40.6397                45.1802                90.7380
 Red. masses --      3.1393                 2.5610                 8.1292
 Frc consts  --      0.0031                 0.0031                 0.0394
 IR Inten    --      0.6452                 0.0000                 0.0000

                      4                      5                      6
                      A                      A                      A
 Frequencies --    102.9604               145.6141               178.1837
 Red. masses --      3.8303                 3.1088                 3.7775
 Frc consts  --      0.0239                 0.0388                 0.0707
 IR Inten    --      0.0143                 4.9516                 0.0001

                      7                      8                      9
                      A                      A                      A
 Frequencies --    196.7492               219.3153               219.7573
 Red. masses --      3.2625                 1.0422                 1.0642
 Frc consts  --      0.0744                 0.0295                 0.0303
 IR Inten    --      1.5455                 0.0514                 0.0003

                     10                     11                     12
                      A                      A                      A
 Frequencies --    246.3396               253.4531               270.1136
 Red. masses --      1.3828                 1.1564                 1.8112
 Frc consts  --      0.0494                 0.0438                 0.0779
 IR Inten    --      0.0078                 0.2431                 0.4454

                     13                     14                     15
                      A                      A                      A
 Frequencies --    316.9949               338.5166               339.5255
 Red. masses --      9.4900                 2.4771                12.6107
 Frc consts  --      0.5619                 0.1672                 0.8565
 IR Inten    --     57.0412                 1.7471                11.5886

                     16                     17                     18
                      A                      A                      A
 Frequencies --    396.4349               445.4035               472.4044
 Red. masses --      4.2623                 2.4484                 3.1607
 Frc consts  --      0.3947                 0.2862                 0.4156
 IR Inten    --      3.3113                 3.2213                 0.3213

                     19                     20                     21
                      A                      A                      A
 Frequencies --    488.0213               527.8368               587.6811
 Red. masses --      4.4855                 4.3851                 2.8156
 Frc consts  --      0.6294                 0.7198                 0.5729
 IR Inten    --      0.0000               106.7417                 0.5011

                     22                     23                     24
                      A                      A                      A
 Frequencies --    602.3571               712.5211               834.1655
 Red. masses --      8.6522                 7.4333                 9.1812
 Frc consts  --      1.8496                 2.2235                 3.7640
 IR Inten    --     27.2851                 0.0040                 2.5296

                     25                     26                     27
                      A                      A                      A
 Frequencies --    842.7800               848.4889               902.0419
 Red. masses --      3.0876                10.9148                 2.4721
 Frc consts  --      1.2921                 4.6298                 1.1851
 IR Inten    --     32.5912                 0.0000                14.9209

                     28                     29                     30
                      A                      A                      A
 Frequencies --    942.0525               942.1103               961.2460
 Red. masses --      1.1486                 1.1482                 2.4630
 Frc consts  --      0.6006                 0.6004                 1.3409
 IR Inten    --      0.0056                 5.1801                 1.3222

                     31                     32                     33
                      A                      A                      A
 Frequencies --    966.8009               967.1069              1018.0094
 Red. masses --      1.4792                 1.4909                 2.8188
 Frc consts  --      0.8146                 0.8216                 1.7211
 IR Inten    --      0.6989                 0.0002                33.9707

                     34                     35                     36
                      A                      A                      A
 Frequencies --   1040.8437              1167.2054              1170.2819
 Red. masses --      3.2008                 2.5319                 2.1422
 Frc consts  --      2.0430                 2.0323                 1.7286
 IR Inten    --    190.3729                34.5238                 0.0109

                     37                     38                     39
                      A                      A                      A
 Frequencies --   1170.6272              1194.1141              1202.2348
 Red. masses --      2.1301                 2.0094                 2.2734
 Frc consts  --      1.7198                 1.6882                 1.9360
 IR Inten    --     26.9552                 0.9614                 8.7904

                     40                     41                     42
                      A                      A                      A
 Frequencies --   1213.9766              1299.3155              1363.0391
 Red. masses --      2.4741                 2.9694                 1.3713
 Frc consts  --      2.1483                 2.9536                 1.5010
 IR Inten    --      1.8392               206.4866                 0.0001

                     43                     44                     45
                      A                      A                      A
 Frequencies --   1363.5810              1388.2568              1402.6296
 Red. masses --      1.3710                 1.9748                 3.0303
 Frc consts  --      1.5020                 2.2423                 3.5125
 IR Inten    --      3.6413               482.1621                51.8772

                     46                     47                     48
                      A                      A                      A
 Frequencies --   1403.3415              1403.5369              1411.4786
 Red. masses --      1.3123                 1.3152                 1.7128
 Frc consts  --      1.5227                 1.5265                 2.0105
 IR Inten    --      0.0141                45.3386               206.6776

                     49                     50                     51
                      A                      A                      A
 Frequencies --   1416.8665              1423.1953              1438.6025
 Red. masses --      1.2698                 1.7273                 2.5153
 Frc consts  --      1.5019                 2.0613                 3.0670
 IR Inten    --      1.2354                39.9468               410.0629

                     52                     53                     54
                      A                      A                      A
 Frequencies --   1481.5380              1481.5818              1489.7545
 Red. masses --      1.0413                 1.0413                 1.0485
 Frc consts  --      1.3466                 1.3467                 1.3711
 IR Inten    --      0.0187                 2.6117                 0.0109

                     55                     56                     57
                      A                      A                      A
 Frequencies --   1489.8071              1493.8686              1494.8622
 Red. masses --      1.0486                 1.0491                 1.0650
 Frc consts  --      1.3713                 1.3794                 1.4022
 IR Inten    --      4.3689                 5.4599                16.7332

                     58                     59                     60
                      A                      A                      A
 Frequencies --   1508.0312              1509.0111              1848.5582
 Red. masses --      1.0622                 1.0741                12.7191
 Frc consts  --      1.4233                 1.4410                25.6079
 IR Inten    --      7.2647                 7.6818               174.4874

                     61                     62                     63
                      A                      A                      A
 Frequencies --   1866.6647              3080.8273              3080.8497
 Red. masses --     12.7136                 1.0352                 1.0352
 Frc consts  --     26.1006                 5.7890                 5.7890
 IR Inten    --    765.3284                 0.2472                63.6444

                     64                     65                     66
                      A                      A                      A
 Frequencies --   3084.3717              3084.5837              3130.0194
 Red. masses --      1.0361                 1.0361                 1.0872
 Frc consts  --      5.8073                 5.8081                 6.2757
 IR Inten    --     20.9246                 0.0501                 1.5711

                     67                     68                     69
                      A                      A                      A
 Frequencies --   3130.1924              3161.6637              3161.6968
 Red. masses --      1.0874                 1.1032                 1.1032
 Frc consts  --      6.2774                 6.4971                 6.4974
 IR Inten    --      3.8799                 0.5849                33.2615

                     70                     71                     72
                      A                      A                      A
 Frequencies --   3163.7167              3163.7626              3167.4107
 Red. masses --      1.1027                 1.1027                 1.1036
 Frc consts  --      6.5027                 6.5027                 6.5233
 IR Inten    --     75.3744                 1.6594                 0.8737

                     73                     74                     75
                      A                      A                      A
 Frequencies --   3167.4148              3173.8857              3173.9810
 Red. masses --      1.1036                 1.1014                 1.1013
 Frc consts  --      6.5233                 6.5368                 6.5370
 IR Inten    --      1.8972                 7.2282                79.5144

 - Thermochemistry -
 -------------------
 Temperature   298.150 Kelvin.  Pressure   1.00000 Atm.
 Atom     1 has atomic number  6 and mass  12.00000

 Molecular mass:   182.10553 amu.
 Principal axes and moments of inertia in atomic units:
                           1         2         3
     Eigenvalues --  1138.646383650.733104008.53795
           X            1.00000   0.00000   0.00000
           Y            0.00000   1.00000   0.00012
           Z            0.00000  -0.00012   1.00000
 This molecule is an asymmetric top.
 Rotational symmetry number  1.
 Warning -- assumption of classical behavior for rotation
           may cause significant error
 Rotational temperatures (Kelvin)      0.07607     0.02373     0.02161
 Rotational constants (GHZ):           1.58499     0.49435     0.45022
 Zero-point vibrational energy     595278.1 (Joules/Mol)
                                  142.27488 (Kcal/Mol)
 Warning -- explicit consideration of  22 degrees of freedom as
           vibrations may cause significant error
 Vibrational temperatures:     58.47    65.00   130.55   148.14   209.51
          (Kelvin)            256.37   283.08   315.55   316.18   354.43
                              364.66   388.63   456.08   487.05   488.50
                              570.38   640.84   679.68   702.15   759.44
                              845.54   866.66  1025.16  1200.18  1212.57
                             1220.78  1297.84  1355.40  1355.48  1383.02
                             1391.01  1391.45  1464.69  1497.54  1679.35
                             1683.77  1684.27  1718.06  1729.75  1746.64
                             1869.42  1961.11  1961.89  1997.39  2018.07
                             2019.09  2019.37  2030.80  2038.55  2047.66
                             2069.83  2131.60  2131.66  2143.42  2143.50
                             2149.34  2150.77  2169.72  2171.13  2659.66
                             2685.71  4432.62  4432.65  4437.72  4438.02
                             4503.39  4503.64  4548.92  4548.97  4551.88
                             4551.94  4557.19  4557.20  4566.51  4566.64

 Zero-point correction=                           0.226729 (Hartree/Particle)
 Thermal correction to Energy=                    0.240666
 Thermal correction to Enthalpy=                  0.241611
 Thermal correction to Gibbs Free Energy=         0.186052
 Sum of electronic and zero-point Energies=           -610.960678
 Sum of electronic and thermal Energies=              -610.946741
 Sum of electronic and thermal Enthalpies=            -610.945797
 Sum of electronic and thermal Free Energies=         -611.001355

                     E (Thermal)             CV                S
                      KCal/Mol        Cal/Mol-Kelvin    Cal/Mol-Kelvin
 Total                  151.020             50.903            116.933
 Electronic               0.000              0.000              0.000
 Translational            0.889              2.981             41.505
 Rotational               0.889              2.981             31.189
 Vibrational            149.243             44.942             44.239
 Vibration     1          0.594              1.981              5.228
 Vibration     2          0.595              1.979              5.018
 Vibration     3          0.602              1.956              3.644
 Vibration     4          0.605              1.947              3.397
 Vibration     5          0.617              1.907              2.729
 Vibration     6          0.629              1.869              2.347
 Vibration     7          0.636              1.844              2.163
 Vibration     8          0.647              1.812              1.965
 Vibration     9          0.647              1.811              1.961
 Vibration    10          0.661              1.769              1.757
 Vibration    11          0.665              1.757              1.706
 Vibration    12          0.674              1.728              1.595
 Vibration    13          0.704              1.641              1.326
 Vibration    14          0.719              1.599              1.219
 Vibration    15          0.719              1.597              1.214
 Vibration    16          0.763              1.478              0.976
 Vibration    17          0.805              1.371              0.810
 Vibration    18          0.829              1.311              0.731
 Vibration    19          0.844              1.277              0.689
 Vibration    20          0.883              1.188              0.592
 Vibration    21          0.945              1.058              0.471
 Vibration    22          0.961              1.027              0.446

 1\1\GINC-RENIO\Freq\RN12SX\6-311+G(d,p)\C9H14N2O2\USER\21-Jun-2021\0\\
 #P Geom=AllCheck Guess=TCheck SCRF=Check GenChk RN12SX/6-311+G(d,p) Fr
 eq\\TITLE\\0,1\C,0.6286545805,1.3415808295,0.0161848503\C,-0.886113300
 6,1.0814116671,0.0125962642\N,-0.9851676175,-0.2907402308,0.0015164855
 \C,0.234591598,-0.9036006059,-0.002224672\N,1.1799281981,0.0811346337,
 0.0064976004\O,-1.7486273378,1.9116980901,0.0184488754\O,1.1646523399,
 2.4120804283,0.0254883058\C,-2.2464447764,-1.0486084446,-0.0057701541\
 C,-3.0386772756,-0.7693531933,-1.2715536609\C,-3.0413009692,-0.7894417

 Normal termination of Gaussian 09 at Mon Jun 21 00:48:25 2021.
