 Gaussian 09, Revision D.01,
 Gaussian 09:  ES64L-G09RevD.01 24-Apr-2013

 ----------------------------------------------------------
 #p opt freq n12sx/6-311+g(d,p) scrf=(iefpcm,solvent=water)
 ----------------------------------------------------------

 -----
 TITLE
 -----
 Symbolic Z-matrix:
 Charge =  0 Multiplicity = 1

 SCF Done:  E(RN12SX) =  -686.683171113     A.U. after   14 cycles
 SCF Done:  E(RN12SX) =  -686.785049504     A.U. after   13 cycles
 SCF Done:  E(RN12SX) =  -686.841132356     A.U. after   14 cycles
 SCF Done:  E(RN12SX) =  -686.853666808     A.U. after   12 cycles
 SCF Done:  E(RN12SX) =  -686.855228843     A.U. after   11 cycles
 SCF Done:  E(RN12SX) =  -686.855491584     A.U. after   11 cycles
 SCF Done:  E(RN12SX) =  -686.855557225     A.U. after   11 cycles
 SCF Done:  E(RN12SX) =  -686.855575571     A.U. after   10 cycles
 SCF Done:  E(RN12SX) =  -686.855594225     A.U. after   10 cycles
 SCF Done:  E(RN12SX) =  -686.855596206     A.U. after   10 cycles
 Optimization completed.
    -- Stationary point found.
 Normal termination of Gaussian 09 at Wed Jun  9 01:12:41 2021.

 ----------------------------------------------------------------------
 #P Geom=AllCheck Guess=TCheck SCRF=Check GenChk RN12SX/6-311+G(d,p) Fr
 eq
 ----------------------------------------------------------------------

 Structure from the checkpoint file:  "NHC22.chk"
 -----
 TITLE
 -----
 Charge =  0 Multiplicity = 1

                         Standard orientation:
 ---------------------------------------------------------------------
 Center     Atomic      Atomic             Coordinates (Angstroms)
 Number     Number       Type             X           Y           Z
 ---------------------------------------------------------------------
      1          6           0       -0.269869    0.699197   -0.000001
      2          6           0        1.032241    0.338669   -0.000003
      3         16           0        1.109160   -1.403864   -0.000001
      4          6           0       -0.587338   -1.642187    0.000006
      5          7           0       -1.122027   -0.416632    0.000004
      6          6           0        2.251714    1.187528   -0.000001
      7          6           0       -0.837057    2.072612    0.000003
      8          6           0       -2.568120   -0.244456   -0.000005
      9          1           0        1.993956    2.242819   -0.000095
     10          1           0        2.866313    0.995103    0.878077
     11          1           0        2.866410    0.994968   -0.877980
     12          1           0       -0.043543    2.811909   -0.000022
     13          1           0       -1.456222    2.248384   -0.878820
     14          1           0       -1.456179    2.248394    0.878853
     15          1           0       -3.016732   -1.228959    0.000022
     16          1           0       -2.887898    0.298753    0.885339
     17          1           0       -2.887895    0.298705   -0.885380
 ---------------------------------------------------------------------

 SCF Done:  E(RN12SX) =  -686.855596206     A.U. after    1 cycles

 The electronic state is 1-A.
 Alpha  occ. eigenvalues --  -89.14809 -14.43336 -10.27179 -10.25855 -10.25344
 Alpha  occ. eigenvalues --  -10.25237 -10.22613 -10.22498  -7.85731  -5.89769
 Alpha  occ. eigenvalues --   -5.89353  -5.89169  -1.00168  -0.83998  -0.79206
 Alpha  occ. eigenvalues --   -0.74115  -0.69679  -0.67280  -0.59167  -0.53449
 Alpha  occ. eigenvalues --   -0.49038  -0.47873  -0.43649  -0.42778  -0.42775
 Alpha  occ. eigenvalues --   -0.41187  -0.39555  -0.39101  -0.38111  -0.37099
 Alpha  occ. eigenvalues --   -0.33531  -0.27693  -0.23450  -0.23108
 Alpha virt. eigenvalues --   -0.02737  -0.00668   0.00743   0.01010   0.01292
 Alpha virt. eigenvalues --    0.02006   0.03013   0.03136   0.03530   0.04910
 Alpha virt. eigenvalues --    0.05075   0.05815   0.06297   0.06851   0.07735

 Mulliken charges:
               1
     1  C   -0.784967
     2  C    1.101473
     3  S   -0.095132
     4  C   -0.412181
     5  N    0.270247
     6  C   -0.491917
     7  C   -1.009250
     8  C   -0.228671
     9  H    0.169148
    10  H    0.187133
    11  H    0.187125
    12  H    0.172486
    13  H    0.189167
    14  H    0.189172
    15  H    0.185594
    16  H    0.185285
    17  H    0.185288
 Sum of Mulliken charges =   0.00000

 Dipole moment (field-independent basis, Debye):
    X=             -0.6361    Y=              6.3483    Z=              0.0000  Tot=              6.3800
 Quadrupole moment (field-independent basis, Debye-Ang):
   XX=            -46.6504   YY=            -62.7395   ZZ=            -56.8593
   XY=             -2.3029   XZ=              0.0000   YZ=              0.0001

  Exact polarizability: 151.295  -1.852 140.997   0.000   0.000  87.683
 Approx polarizability: 178.471  -4.281 160.391   0.000   0.000 102.819

                      1                      2                      3
                      A                      A                      A
 Frequencies --     67.7382               118.4855               142.7663
 Red. masses --      1.0261                 1.4692                 1.5692
 Frc consts  --      0.0028                 0.0122                 0.0188
 IR Inten    --      0.4779                 1.0118                 1.3309

                      4                      5                      6
                      A                      A                      A
 Frequencies --    200.5348               268.1123               280.4073
 Red. masses --      1.1726                 2.5752                 3.8423
 Frc consts  --      0.0278                 0.1091                 0.1780
 IR Inten    --      1.7665                 8.9461                 1.3427

                      7                      8                      9
                      A                      A                      A
 Frequencies --    286.9063               327.5881               435.3659
 Red. masses --      2.7336                 2.5810                 3.6519
 Frc consts  --      0.1326                 0.1632                 0.4078
 IR Inten    --      1.5663                 1.4851                 3.2962

                     10                     11                     12
                      A                      A                      A
 Frequencies --    511.5861               532.9211               579.5213
 Red. masses --      6.7072                 6.1227                 6.2437
 Frc consts  --      1.0343                 1.0245                 1.2355
 IR Inten    --     14.0203                 2.8083                 9.3550

                     13                     14                     15
                      A                      A                      A
 Frequencies --    641.7699               642.8144               818.3390
 Red. masses --      4.4384                 4.2384                 3.8606
 Frc consts  --      1.0770                 1.0319                 1.5232
 IR Inten    --      0.0268                 4.0626                14.9062

                     16                     17                     18
                      A                      A                      A
 Frequencies --    863.8150               965.8913              1050.9308
 Red. masses --      5.0074                 1.7544                 1.3928
 Frc consts  --      2.2014                 0.9643                 0.9063
 IR Inten    --      1.0471                 5.2114                 2.7767

                     19                     20                     21
                      A                      A                      A
 Frequencies --   1070.5012              1081.4410              1119.4552
 Red. masses --      1.5097                 1.9956                 1.9013
 Frc consts  --      1.0193                 1.3751                 1.4038
 IR Inten    --      0.3010                 2.3758                 2.2081

                     22                     23                     24
                      A                      A                      A
 Frequencies --   1132.6177              1150.6038              1257.0657
 Red. masses --      2.4334                 1.3492                 4.0460
 Frc consts  --      1.8392                 1.0524                 3.7669
 IR Inten    --     17.9238                 0.0011                 5.2529

                     25                     26                     27
                      A                      A                      A
 Frequencies --   1349.8055              1406.3286              1420.1957
 Red. masses --      4.2241                 3.3922                 1.4758
 Frc consts  --      4.5344                 3.9528                 1.7538
 IR Inten    --     27.7112                39.0267                 1.4529

                     28                     29                     30
                      A                      A                      A
 Frequencies --   1429.3132              1458.0851              1474.3025
 Red. masses --      1.2952                 1.2232                 1.0381
 Frc consts  --      1.5590                 1.5322                 1.3294
 IR Inten    --      4.0490                17.5601                14.2655

                     31                     32                     33
                      A                      A                      A
 Frequencies --   1476.8012              1483.7660              1488.5661
 Red. masses --      1.0397                 1.0704                 1.0891
 Frc consts  --      1.3360                 1.3884                 1.4219
 IR Inten    --      2.2912                 6.2048                29.0587

                     34                     35                     36
                      A                      A                      A
 Frequencies --   1497.4191              1507.2532              1686.5285
 Red. masses --      1.0377                 1.1170                 7.6745
 Frc consts  --      1.3708                 1.4952                12.8614
 IR Inten    --     39.6238                 7.0584                18.8764

                     37                     38                     39
                      A                      A                      A
 Frequencies --   3074.7361              3076.7979              3093.6507
 Red. masses --      1.0374                 1.0394                 1.0353
 Frc consts  --      5.7785                 5.7972                 5.8378
 IR Inten    --     40.9827                22.5325                48.0541

                     40                     41                     42
                      A                      A                      A
 Frequencies --   3135.7719              3136.1586              3165.7152
 Red. masses --      1.1013                 1.1015                 1.1008
 Frc consts  --      6.3806                 6.3832                 6.4998
 IR Inten    --     13.1661                11.6910                17.1290

                     43                     44                     45
                      A                      A                      A
 Frequencies --   3167.7714              3186.8663              3220.3326
 Red. masses --      1.1056                 1.0981                 1.1024
 Frc consts  --      6.5369                 6.5708                 6.7356
 IR Inten    --     18.5942                17.5973                 3.7700

 - Thermochemistry -
 -------------------
 Temperature   298.150 Kelvin.  Pressure   1.00000 Atm.
 Atom     1 has atomic number  6 and mass  12.00000

 Molecular mass:   127.04557 amu.
 Principal axes and moments of inertia in atomic units:
                           1         2         3
     Eigenvalues --   730.59985 995.955191693.05330
           X            0.99766   0.06831   0.00000
           Y           -0.06831   0.99766   0.00000
           Z            0.00000   0.00000   1.00000
 This molecule is an asymmetric top.
 Rotational symmetry number  1.
 Warning -- assumption of classical behavior for rotation
           may cause significant error
 Rotational temperatures (Kelvin)      0.11855     0.08697     0.05116
 Rotational constants (GHZ):           2.47022     1.81207     1.06597
 Zero-point vibrational energy     367752.1 (Joules/Mol)
                                   87.89485 (Kcal/Mol)
 Warning -- explicit consideration of  12 degrees of freedom as
           vibrations may cause significant error
 Vibrational temperatures:     97.46   170.47   205.41   288.52   385.75
          (Kelvin)            403.44   412.79   471.33   626.39   736.06
                              766.75   833.80   923.36   924.87  1177.41
                             1242.84  1389.70  1512.05  1540.21  1555.95
                             1610.64  1629.58  1655.46  1808.63  1942.07
                             2023.39  2043.34  2056.46  2097.86  2121.19
                             2124.78  2134.81  2141.71  2154.45  2168.60
                             2426.54  4423.85  4426.82  4451.07  4511.67
                             4512.23  4554.75  4557.71  4585.18  4633.33

 Zero-point correction=                           0.140069 (Hartree/Particle)
 Thermal correction to Energy=                    0.148897
 Thermal correction to Enthalpy=                  0.149841
 Thermal correction to Gibbs Free Energy=         0.106361
 Sum of electronic and zero-point Energies=           -686.715527
 Sum of electronic and thermal Energies=              -686.706699
 Sum of electronic and thermal Enthalpies=            -686.705755
 Sum of electronic and thermal Free Energies=         -686.749236

                     E (Thermal)             CV                S
                      KCal/Mol        Cal/Mol-Kelvin    Cal/Mol-Kelvin
 Total                   93.434             31.593             91.513
 Electronic               0.000              0.000              0.000
 Translational            0.889              2.981             40.432
 Rotational               0.889              2.981             28.601
 Vibrational             91.657             25.632             22.480
 Vibration     1          0.598              1.970              4.218
 Vibration     2          0.609              1.934              3.125
 Vibration     3          0.616              1.910              2.766
 Vibration     4          0.638              1.839              2.128
 Vibration     5          0.673              1.732              1.608
 Vibration     6          0.680              1.710              1.531
 Vibration     7          0.684              1.698              1.492
 Vibration     8          0.711              1.620              1.272
 Vibration     9          0.796              1.393              0.841
 Vibration    10          0.867              1.224              0.630
 Vibration    11          0.888              1.177              0.581
 Vibration    12          0.936              1.076              0.486

 Optimization completed.
    -- Stationary point found.
 Normal termination of Gaussian 09 at Wed Jun  9 01:17:45 2021.
