 Gaussian 09, Revision D.01,
 Gaussian 09:  ES64L-G09RevD.01 24-Apr-2013

 ----------------------------------------------------------
 #p opt freq n12sx/6-311+g(d,p) scrf=(iefpcm,solvent=water)
 ----------------------------------------------------------

 -----
 TITLE
 -----
 Symbolic Z-matrix:
 Charge =  0 Multiplicity = 1

 SCF Done:  E(RN12SX) =  -446.996898785     A.U. after   14 cycles
 SCF Done:  E(RN12SX) =  -447.028537409     A.U. after   13 cycles
 SCF Done:  E(RN12SX) =  -447.051551935     A.U. after   12 cycles
 SCF Done:  E(RN12SX) =  -447.068408170     A.U. after   12 cycles
 SCF Done:  E(RN12SX) =  -447.073136687     A.U. after   11 cycles
 SCF Done:  E(RN12SX) =  -447.074713217     A.U. after   11 cycles
 SCF Done:  E(RN12SX) =  -447.075581646     A.U. after   11 cycles
 SCF Done:  E(RN12SX) =  -447.076714944     A.U. after   10 cycles
 SCF Done:  E(RN12SX) =  -447.078759149     A.U. after   10 cycles
 SCF Done:  E(RN12SX) =  -447.081437553     A.U. after   11 cycles
 SCF Done:  E(RN12SX) =  -447.083060537     A.U. after   10 cycles
 SCF Done:  E(RN12SX) =  -447.084296822     A.U. after   10 cycles
 SCF Done:  E(RN12SX) =  -447.084941808     A.U. after   10 cycles
 SCF Done:  E(RN12SX) =  -447.085257081     A.U. after   10 cycles
 SCF Done:  E(RN12SX) =  -447.085432079     A.U. after   10 cycles
 SCF Done:  E(RN12SX) =  -447.085518164     A.U. after    9 cycles
 SCF Done:  E(RN12SX) =  -447.085540048     A.U. after    9 cycles
 SCF Done:  E(RN12SX) =  -447.085543414     A.U. after    7 cycles
 SCF Done:  E(RN12SX) =  -447.085543877     A.U. after    8 cycles
 Optimization completed.
    -- Stationary point found.
 Normal termination of Gaussian 09 at Wed Jun  9 15:57:31 2021.

 ----------------------------------------------------------------------
 #P Geom=AllCheck Guess=TCheck SCRF=Check GenChk RN12SX/6-311+G(d,p) Fr
 eq
 ----------------------------------------------------------------------

 Structure from the checkpoint file:  "NHC25.chk"
 -----
 TITLE
 -----
 Charge =  0 Multiplicity = 1

                         Standard orientation:
 ---------------------------------------------------------------------
 Center     Atomic      Atomic             Coordinates (Angstroms)
 Number     Number       Type             X           Y           Z
 ---------------------------------------------------------------------
      1          6           0        1.051582   -1.323718    0.274853
      2          6           0        1.639386    0.064177    0.011390
      3          6           0        0.642790    1.198876    0.037257
      4          7           0       -0.631287    0.918978    0.014667
      5          6           0       -1.291531   -0.437019   -0.001153
      6          6           0       -0.270776   -1.481307   -0.440218
      7          6           0        2.714808    0.369917    1.056196
      8          6           0        2.291044    0.116737   -1.378898
      9          6           0       -2.447672   -0.446781   -0.997279
     10          6           0       -1.814702   -0.743601    1.401677
     11          6           0       -1.566656    2.045484    0.031941
     12          1           0        1.752243   -2.095958   -0.045379
     13          1           0        0.913785   -1.461642    1.347891
     14          1           0       -0.699230   -2.467049   -0.263382
     15          1           0       -0.122966   -1.395991   -1.517415
     16          1           0        3.190853    1.327617    0.855761
     17          1           0        3.479473   -0.407696    1.043022
     18          1           0        2.289529    0.405696    2.058600
     19          1           0        1.585399   -0.130428   -2.169904
     20          1           0        2.684946    1.110421   -1.582275
     21          1           0        3.114806   -0.595822   -1.423313
     22          1           0       -2.819348   -1.465877   -1.088170
     23          1           0       -3.278935    0.177970   -0.681413
     24          1           0       -2.119245   -0.121404   -1.982801
     25          1           0       -1.010379   -0.756140    2.132666
     26          1           0       -2.553414   -0.013644    1.724114
     27          1           0       -2.295317   -1.720431    1.404527
     28          1           0       -2.062354    2.150556   -0.929814
     29          1           0       -0.995580    2.939766    0.240822
     30          1           0       -2.324893    1.910622    0.799193
 ---------------------------------------------------------------------

 SCF Done:  E(RN12SX) =  -447.085543877     A.U. after    1 cycles

 The electronic state is 1-A.
 Alpha  occ. eigenvalues --  -14.41132 -10.27181 -10.23726 -10.22692 -10.22236
 Alpha  occ. eigenvalues --  -10.21316 -10.20916 -10.20835 -10.20709 -10.20284
 Alpha  occ. eigenvalues --  -10.19926  -0.96268  -0.82714  -0.81315  -0.73051
 Alpha  occ. eigenvalues --   -0.70898  -0.69531  -0.68153  -0.63654  -0.61175
 Alpha  occ. eigenvalues --   -0.57365  -0.49963  -0.48604  -0.47177  -0.45530
 Alpha  occ. eigenvalues --   -0.44914  -0.43240  -0.42164  -0.41640  -0.39698
 Alpha  occ. eigenvalues --   -0.39330  -0.38354  -0.38086  -0.37212  -0.36510
 Alpha  occ. eigenvalues --   -0.35611  -0.34607  -0.33948  -0.32134  -0.31242
 Alpha  occ. eigenvalues --   -0.30390  -0.28164  -0.18440
 Alpha virt. eigenvalues --   -0.01428  -0.00362   0.00596   0.00976   0.01486
 Alpha virt. eigenvalues --    0.02722   0.02957   0.03140   0.03658   0.04507
 Alpha virt. eigenvalues --    0.05297   0.05612   0.05930   0.06018   0.06614

 Mulliken charges:
               1
     1  C   -0.616834
     2  C    0.445209
     3  C   -0.216879
     4  N    0.340391
     5  C   -0.310570
     6  C   -0.303607
     7  C   -0.597691
     8  C   -0.655461
     9  C   -0.591349
    10  C   -0.597051
    11  C   -0.231758
    12  H    0.177722
    13  H    0.166865
    14  H    0.187494
    15  H    0.179034
    16  H    0.166198
    17  H    0.162821
    18  H    0.166268
    19  H    0.157647
    20  H    0.172921
    21  H    0.166873
    22  H    0.182431
    23  H    0.183490
    24  H    0.195317
    25  H    0.172932
    26  H    0.168148
    27  H    0.178535
    28  H    0.187650
    29  H    0.179938
    30  H    0.183315
 Sum of Mulliken charges =   0.00000

 Dipole moment (field-independent basis, Debye):
    X=             -3.4205    Y=             -3.2617    Z=             -0.1616  Tot=              4.7292
 Quadrupole moment (field-independent basis, Debye-Ang):
   XX=            -67.2671   YY=            -75.2167   ZZ=            -70.4411
   XY=             -5.4523   XZ=             -0.4479   YZ=             -0.1268

  Exact polarizability: 189.700   5.494 168.238   0.570  -0.014 151.492
 Approx polarizability: 196.039   3.890 176.382  -0.436  -0.095 166.784

                      1                      2                      3
                      A                      A                      A
 Frequencies --     63.1757               125.7615               174.1126
 Red. masses --      2.8519                 2.5418                 1.1361
 Frc consts  --      0.0067                 0.0237                 0.0203
 IR Inten    --      0.8827                 7.0246                 0.2156

                      4                      5                      6
                      A                      A                      A
 Frequencies --    221.3336               234.0083               243.3605
 Red. masses --      1.3472                 1.4003                 1.2917
 Frc consts  --      0.0389                 0.0452                 0.0451
 IR Inten    --      0.2048                 0.1781                 1.1137

                      7                      8                      9
                      A                      A                      A
 Frequencies --    268.2627               276.5324               288.8780
 Red. masses --      1.3086                 1.6373                 1.2528
 Frc consts  --      0.0555                 0.0738                 0.0616
 IR Inten    --      0.2346                 0.2869                 0.1102

                     10                     11                     12
                      A                      A                      A
 Frequencies --    295.2137               328.9514               348.4971
 Red. masses --      2.0160                 2.2141                 2.2456
 Frc consts  --      0.1035                 0.1412                 0.1607
 IR Inten    --      1.2191                 0.7752                 3.2210

                     13                     14                     15
                      A                      A                      A
 Frequencies --    357.4177               388.1447               405.5773
 Red. masses --      2.0249                 2.3427                 1.8862
 Frc consts  --      0.1524                 0.2080                 0.1828
 IR Inten    --      0.2301                 1.8403                 0.5828

                     16                     17                     18
                      A                      A                      A
 Frequencies --    459.4200               479.5122               493.9010
 Red. masses --      3.2389                 3.1126                 2.4789
 Frc consts  --      0.4028                 0.4217                 0.3563
 IR Inten    --     14.7859                 9.6414                 1.9202

                     19                     20                     21
                      A                      A                      A
 Frequencies --    519.6707               596.2059               613.2430
 Red. masses --      3.4499                 4.6523                 2.8047
 Frc consts  --      0.5489                 0.9743                 0.6214
 IR Inten    --      5.9319                 2.0607                 3.2912

                     22                     23                     24
                      A                      A                      A
 Frequencies --    683.6864               765.9693               836.7472
 Red. masses --      3.7290                 2.3654                 2.2990
 Frc consts  --      1.0270                 0.8177                 0.9484
 IR Inten    --      5.6704                 6.9777                 2.0113

                     25                     26                     27
                      A                      A                      A
 Frequencies --    911.0640               933.8902               951.2505
 Red. masses --      1.8923                 2.6425                 1.5000
 Frc consts  --      0.9254                 1.3579                 0.7997
 IR Inten    --      0.2724                 9.8167                 0.7855

                     28                     29                     30
                      A                      A                      A
 Frequencies --    954.9347               961.7539               982.1268
 Red. masses --      1.6022                 1.4331                 1.8402
 Frc consts  --      0.8608                 0.7810                 1.0458
 IR Inten    --      0.4783                 0.8972                 4.2545

                     31                     32                     33
                      A                      A                      A
 Frequencies --    990.2376              1018.2137              1040.5872
 Red. masses --      1.5289                 1.3089                 1.4295
 Frc consts  --      0.8833                 0.7996                 0.9120
 IR Inten    --      2.0116                 1.9243                 4.1206

                     34                     35                     36
                      A                      A                      A
 Frequencies --   1068.1337              1083.5950              1112.5345
 Red. masses --      1.5961                 2.1400                 1.5966
 Frc consts  --      1.0729                 1.4805                 1.1644
 IR Inten    --      6.8859                12.5490                17.2198

                     37                     38                     39
                      A                      A                      A
 Frequencies --   1145.9245              1168.9293              1195.6378
 Red. masses --      1.3751                 1.9784                 2.3297
 Frc consts  --      1.0639                 1.5927                 1.9622
 IR Inten    --      8.8159                25.3515                14.5107

                     40                     41                     42
                      A                      A                      A
 Frequencies --   1218.6467              1237.9782              1263.5841
 Red. masses --      2.7567                 2.9457                 2.4260
 Frc consts  --      2.4121                 2.6599                 2.2822
 IR Inten    --     13.6207                 9.3066                 4.1156

                     43                     44                     45
                      A                      A                      A
 Frequencies --   1277.4493              1294.4518              1304.3633
 Red. masses --      2.7015                 1.9003                 1.7629
 Frc consts  --      2.5974                 1.8761                 1.7672
 IR Inten    --      9.8119                 8.4268                 6.8564

                     46                     47                     48
                      A                      A                      A
 Frequencies --   1375.3378              1383.5153              1395.0154
 Red. masses --      1.5685                 1.2577                 1.5156
 Frc consts  --      1.7481                 1.4184                 1.7377
 IR Inten    --      7.0728                10.6054                 0.9569

                     49                     50                     51
                      A                      A                      A
 Frequencies --   1402.2523              1404.3949              1418.3485
 Red. masses --      1.2722                 1.2585                 1.2423
 Frc consts  --      1.4739                 1.4624                 1.4724
 IR Inten    --      8.6715                16.1281                23.6924

                     52                     53                     54
                      A                      A                      A
 Frequencies --   1436.8376              1474.0464              1481.0566
 Red. masses --      1.2230                 1.0643                 1.0758
 Frc consts  --      1.4876                 1.3625                 1.3903
 IR Inten    --      8.4409                 0.5220                12.3557

                     55                     56                     57
                      A                      A                      A
 Frequencies --   1482.3990              1483.5634              1485.9763
 Red. masses --      1.0930                 1.0501                 1.0508
 Frc consts  --      1.4152                 1.3617                 1.3671
 IR Inten    --      3.3511                 1.2937                 3.1976

                     58                     59                     60
                      A                      A                      A
 Frequencies --   1488.6373              1491.9084              1498.0808
 Red. masses --      1.0546                 1.0701                 1.0817
 Frc consts  --      1.3770                 1.4033                 1.4302
 IR Inten    --     18.0202                11.6173                26.4051

                     61                     62                     63
                      A                      A                      A
 Frequencies --   1506.3585              1507.0187              1508.9432
 Red. masses --      1.0610                 1.0696                 1.0763
 Frc consts  --      1.4185                 1.4313                 1.4439
 IR Inten    --     25.3851                12.4066                10.4760

                     64                     65                     66
                      A                      A                      A
 Frequencies --   1515.5190              1568.3587              3057.4408
 Red. masses --      1.0575                 4.2849                 1.0358
 Frc consts  --      1.4311                 6.2099                 5.7047
 IR Inten    --      8.6643                91.4867                39.2369

                     67                     68                     69
                      A                      A                      A
 Frequencies --   3063.0393              3067.5564              3073.6788
 Red. masses --      1.0436                 1.0522                 1.0524
 Frc consts  --      5.7689                 5.8335                 5.8579
 IR Inten    --     38.7436                70.8266                19.7741

                     70                     71                     72
                      A                      A                      A
 Frequencies --   3076.0435              3082.0356              3091.0698
 Red. masses --      1.0409                 1.0406                 1.0364
 Frc consts  --      5.8026                 5.8239                 5.8342
 IR Inten    --     48.7475                26.1546                55.8301

                     73                     74                     75
                      A                      A                      A
 Frequencies --   3105.1046              3120.9482              3131.2249
 Red. masses --      1.1008                 1.1033                 1.1016
 Frc consts  --      6.2534                 6.3314                 6.3636
 IR Inten    --     53.4394                57.1530                49.0864

                     76                     77                     78
                      A                      A                      A
 Frequencies --   3141.2261              3148.1297              3151.0808
 Red. masses --      1.1010                 1.1023                 1.1022
 Frc consts  --      6.4011                 6.4366                 6.4481
 IR Inten    --     42.3687                34.3419                50.4286

                     79                     80                     81
                      A                      A                      A
 Frequencies --   3151.2165              3154.8423              3161.8395
 Red. masses --      1.1021                 1.1019                 1.1030
 Frc consts  --      6.4481                 6.4619                 6.4970
 IR Inten    --     20.1829                59.8225                55.1070

                     82                     83                     84
                      A                      A                      A
 Frequencies --   3163.7285              3168.0631              3216.7016
 Red. masses --      1.1028                 1.1024                 1.1016
 Frc consts  --      6.5033                 6.5190                 6.7158
 IR Inten    --     21.3094                33.0159                 9.4986

 - Thermochemistry -
 -------------------
 Temperature   298.150 Kelvin.  Pressure   1.00000 Atm.
 Atom     1 has atomic number  6 and mass  12.00000

 Molecular mass:   153.15175 amu.
 Principal axes and moments of inertia in atomic units:
                           1         2         3
     Eigenvalues --  1044.090072069.116802317.69855
           X            0.99998  -0.00578   0.00007
           Y            0.00578   0.99997  -0.00411
           Z           -0.00004   0.00411   0.99999
 This molecule is an asymmetric top.
 Rotational symmetry number  1.
 Warning -- assumption of classical behavior for rotation
           may cause significant error
 Rotational temperatures (Kelvin)      0.08296     0.04186     0.03737
 Rotational constants (GHZ):           1.72853     0.87223     0.77868
 Zero-point vibrational energy     725029.1 (Joules/Mol)
                                  173.28612 (Kcal/Mol)
 Warning -- explicit consideration of  21 degrees of freedom as
           vibrations may cause significant error
 Vibrational temperatures:     90.90   180.94   250.51   318.45   336.69
          (Kelvin)            350.14   385.97   397.87   415.63   424.75
                              473.29   501.41   514.24   558.45   583.53
                              661.00   689.91   710.61   747.69   857.81
                              882.32   983.67  1102.06  1203.89  1310.82
                             1343.66  1368.64  1373.94  1383.75  1413.06
                             1424.73  1464.98  1497.17  1536.80  1559.05
                             1600.69  1648.73  1681.83  1720.25  1753.36
                             1781.17  1818.01  1837.96  1862.43  1876.69
                             1978.80  1990.57  2007.11  2017.53  2020.61
                             2040.68  2067.29  2120.82  2130.91  2132.84
                             2134.51  2137.99  2141.81  2146.52  2155.40
                             2167.31  2168.26  2171.03  2180.49  2256.52
                             4398.97  4407.02  4413.52  4422.33  4425.74
                             4434.36  4447.35  4467.55  4490.34  4505.13
                             4519.52  4529.45  4533.70  4533.89  4539.11
                             4549.18  4551.89  4558.13  4628.11

 Zero-point correction=                           0.276149 (Hartree/Particle)
 Thermal correction to Energy=                    0.288338
 Thermal correction to Enthalpy=                  0.289283
 Thermal correction to Gibbs Free Energy=         0.239834
 Sum of electronic and zero-point Energies=           -446.809395
 Sum of electronic and thermal Energies=              -446.797206
 Sum of electronic and thermal Enthalpies=            -446.796261
 Sum of electronic and thermal Free Energies=         -446.845709

                     E (Thermal)             CV                S
                      KCal/Mol        Cal/Mol-Kelvin    Cal/Mol-Kelvin
 Total                  180.935             48.918            104.072
 Electronic               0.000              0.000              0.000
 Translational            0.889              2.981             40.989
 Rotational               0.889              2.981             29.994
 Vibrational            179.158             42.957             33.089
 Vibration     1          0.597              1.972              4.355
 Vibration     2          0.611              1.927              3.010
 Vibration     3          0.627              1.874              2.391
 Vibration     4          0.648              1.809              1.948
 Vibration     5          0.654              1.789              1.848
 Vibration     6          0.659              1.774              1.778
 Vibration     7          0.673              1.731              1.607
 Vibration     8          0.678              1.717              1.555
 Vibration     9          0.685              1.694              1.481
 Vibration    10          0.689              1.683              1.444
 Vibration    11          0.712              1.618              1.265
 Vibration    12          0.726              1.578              1.173
 Vibration    13          0.733              1.560              1.133
 Vibration    14          0.756              1.496              1.007
 Vibration    15          0.771              1.458              0.942
 Vibration    16          0.817              1.340              0.768
 Vibration    17          0.836              1.295              0.711
 Vibration    18          0.850              1.264              0.674
 Vibration    19          0.875              1.206              0.611
 Vibration    20          0.954              1.040              0.456
 Vibration    21          0.973              1.004              0.427

 Optimization completed.
    -- Stationary point found.
 Normal termination of Gaussian 09 at Wed Jun  9 17:06:40 2021.
