 Gaussian 09, Revision D.01,
 Gaussian 09:  ES64L-G09RevD.01 24-Apr-2013

 ----------------------------------------------------------
 #p opt freq n12sx/6-311+g(d,p) scrf=(iefpcm,solvent=water)
 ----------------------------------------------------------

 -----
 TITLE
 -----
 Symbolic Z-matrix:
 Charge =  0 Multiplicity = 1

 SCF Done:  E(RN12SX) =  -383.248162661     A.U. after   16 cycles
 SCF Done:  E(RN12SX) =  -383.277978547     A.U. after   13 cycles
 SCF Done:  E(RN12SX) =  -383.283795381     A.U. after   14 cycles
 SCF Done:  E(RN12SX) =  -383.284199077     A.U. after   13 cycles
 SCF Done:  E(RN12SX) =  -383.284256952     A.U. after   12 cycles
 SCF Done:  E(RN12SX) =  -383.284357153     A.U. after   10 cycles
 SCF Done:  E(RN12SX) =  -383.284364892     A.U. after   10 cycles
 SCF Done:  E(RN12SX) =  -383.284379024     A.U. after    9 cycles
 SCF Done:  E(RN12SX) =  -383.284332011     A.U. after   12 cycles
 SCF Done:  E(RN12SX) =  -383.284394145     A.U. after   12 cycles
 SCF Done:  E(RN12SX) =  -383.285947616     A.U. after   11 cycles
 SCF Done:  E(RN12SX) =  -383.286178708     A.U. after   12 cycles
 SCF Done:  E(RN12SX) =  -383.286216752     A.U. after   10 cycles
 SCF Done:  E(RN12SX) =  -383.286251939     A.U. after   11 cycles
 SCF Done:  E(RN12SX) =  -383.286264933     A.U. after   10 cycles
 SCF Done:  E(RN12SX) =  -383.286270383     A.U. after   10 cycles
 SCF Done:  E(RN12SX) =  -383.286272337     A.U. after    9 cycles
 SCF Done:  E(RN12SX) =  -383.286272706     A.U. after    8 cycles
 SCF Done:  E(RN12SX) =  -383.286272775     A.U. after    7 cycles
 Optimization completed.
    -- Stationary point found.
 Normal termination of Gaussian 09 at Tue Oct  5 00:39:45 2021.

 ----------------------------------------------------------------------
 #P Geom=AllCheck Guess=TCheck SCRF=Check GenChk RN12SX/6-311+G(d,p) Fr
 eq
 ----------------------------------------------------------------------

 Structure from the checkpoint file:  "NHC27-.chk"
 -----
 TITLE
 -----
 Charge =  0 Multiplicity = 1

                         Standard orientation:
 ---------------------------------------------------------------------
 Center     Atomic      Atomic             Coordinates (Angstroms)
 Number     Number       Type             X           Y           Z
 ---------------------------------------------------------------------
      1          7           0       -0.675499    0.501904   -0.012617
      2          7           0        0.675509    0.501940    0.012330
      3          6           0        1.086394   -0.792146    0.011095
      4          6           0        0.000046   -1.673790    0.000114
      5          6           0       -1.086336   -0.792223   -0.011070
      6          6           0        1.435585    1.727142   -0.036162
      7          6           0       -1.435696    1.727010    0.036288
      8          6           0        2.541748   -1.102732    0.015679
      9          6           0       -2.541707   -1.102763   -0.015681
     10          1           0        2.481537    1.475054    0.081500
     11          1           0        1.303208    2.234014   -0.989959
     12          1           0        1.148791    2.393846    0.772825
     13          1           0       -2.481534    1.474956   -0.082490
     14          1           0       -1.304121    2.233132    0.990602
     15          1           0       -1.148299    2.394376   -0.771919
     16          1           0        2.664173   -2.180159    0.030129
     17          1           0        3.047724   -0.715638   -0.869198
     18          1           0        3.048587   -0.691840    0.889191
     19          1           0       -3.048158   -0.692874   -0.889896
     20          1           0       -2.664186   -2.180202   -0.028881
     21          1           0       -3.047993   -0.714564    0.868526
 ---------------------------------------------------------------------

 SCF Done:  E(RN12SX) =  -383.286272775     A.U. after    2 cycles

 The electronic state is 1-A.
 Alpha  occ. eigenvalues --  -14.45012 -14.44988 -10.26544 -10.26543 -10.25751
 Alpha  occ. eigenvalues --  -10.25750 -10.21484 -10.21484 -10.15613  -1.08344
 Alpha  occ. eigenvalues --   -0.88772  -0.82372  -0.75135  -0.75105  -0.67299
 Alpha  occ. eigenvalues --   -0.67198  -0.60167  -0.53366  -0.52385  -0.51251
 Alpha  occ. eigenvalues --   -0.46626  -0.44402  -0.44330  -0.42030  -0.41355
 Alpha  occ. eigenvalues --   -0.41085  -0.40480  -0.39122  -0.39036  -0.37614
 Alpha  occ. eigenvalues --   -0.34008  -0.25021  -0.22399  -0.18708
 Alpha virt. eigenvalues --   -0.02207  -0.00637   0.00633   0.01528   0.02385
 Alpha virt. eigenvalues --    0.02987   0.03105   0.04255   0.04354   0.04447
 Alpha virt. eigenvalues --    0.05784   0.06268   0.06767   0.07746   0.07824

 Mulliken charges:
               1
     1  N    0.168805
     2  N    0.168888
     3  C    0.798237
     4  C   -1.478537
     5  C    0.798451
     6  C   -0.349372
     7  C   -0.349300
     8  C   -1.027791
     9  C   -1.027538
    10  H    0.194544
    11  H    0.209163
    12  H    0.191073
    13  H    0.194553
    14  H    0.209211
    15  H    0.191003
    16  H    0.182331
    17  H    0.186167
    18  H    0.185800
    19  H    0.185874
    20  H    0.182330
    21  H    0.186106
 Sum of Mulliken charges =   0.00000

 Dipole moment (field-independent basis, Debye):
    X=             -0.0001    Y=             10.4002    Z=             -0.0004  Tot=             10.4002
 Quadrupole moment (field-independent basis, Debye-Ang):
   XX=            -42.7592   YY=            -65.3475   ZZ=            -56.8836
   XY=              0.0006   XZ=             -0.0671   YZ=              0.0013

  Exact polarizability: 157.179  -0.002 159.830  -0.188   0.000  97.148
 Approx polarizability: 175.153  -0.002 170.381   0.203  -0.002 110.301

                      1                      2                      3
                      A                      A                      A
 Frequencies --     94.2484               132.1482               139.8998
 Red. masses --      2.0763                 1.1221                 1.7769
 Frc consts  --      0.0109                 0.0115                 0.0205
 IR Inten    --      0.2128                 0.0398                 1.5095

                      4                      5                      6
                      A                      A                      A
 Frequencies --    151.5583               160.0122               200.8034
 Red. masses --      1.1734                 1.0688                 1.7514
 Frc consts  --      0.0159                 0.0161                 0.0416
 IR Inten    --      4.8971                 0.0024                22.0483

                      7                      8                      9
                      A                      A                      A
 Frequencies --    232.8490               292.7848               306.1147
 Red. masses --      1.9023                 2.5323                 2.5520
 Frc consts  --      0.0608                 0.1279                 0.1409
 IR Inten    --      1.3988                 4.6469                 4.4875

                     10                     11                     12
                      A                      A                      A
 Frequencies --    317.9069               337.8929               550.3184
 Red. masses --      3.5382                 2.6093                 2.7710
 Frc consts  --      0.2107                 0.1755                 0.4944
 IR Inten    --      0.7178                 1.2581                 5.5547

                     13                     14                     15
                      A                      A                      A
 Frequencies --    597.0193               600.6325               620.6258
 Red. masses --      4.0571                 4.4348                 4.5642
 Frc consts  --      0.8520                 0.9426                 1.0358
 IR Inten    --      0.1148                 0.9151                 0.8805

                     16                     17                     18
                      A                      A                      A
 Frequencies --    666.5813               734.7647               849.6083
 Red. masses --      5.0024                 4.0344                 2.9769
 Frc consts  --      1.3096                 1.2833                 1.2661
 IR Inten    --      5.5942                 2.0651                 1.2568

                     19                     20                     21
                      A                      A                      A
 Frequencies --    990.2976              1011.2949              1045.4475
 Red. masses --      1.8393                 1.8561                 1.5021
 Frc consts  --      1.0628                 1.1184                 0.9673
 IR Inten    --      0.8492                21.7328                 6.9634

                     22                     23                     24
                      A                      A                      A
 Frequencies --   1052.7649              1063.2557              1143.9031
 Red. masses --      1.6984                 1.5413                 1.3641
 Frc consts  --      1.1091                 1.0266                 1.0516
 IR Inten    --     26.2823                 0.6825                13.5708

                     25                     26                     27
                      A                      A                      A
 Frequencies --   1145.4167              1153.9772              1186.6709
 Red. masses --      1.3226                 1.7252                 2.4511
 Frc consts  --      1.0224                 1.3536                 2.0337
 IR Inten    --      2.5568                25.9456                 0.2553

                     28                     29                     30
                      A                      A                      A
 Frequencies --   1232.8185              1371.5320              1391.1005
 Red. masses --      3.8444                 2.6343                 1.4114
 Frc consts  --      3.4425                 2.9196                 1.6093
 IR Inten    --     38.4217                 2.1253                67.8861

                     31                     32                     33
                      A                      A                      A
 Frequencies --   1409.0511              1436.4191              1437.4114
 Red. masses --      1.6314                 2.9486                 2.7601
 Frc consts  --      1.9084                 3.5845                 3.3600
 IR Inten    --      9.4748               300.1091               264.9337

                     34                     35                     36
                      A                      A                      A
 Frequencies --   1454.7050              1469.1664              1476.5180
 Red. masses --      1.1809                 1.2956                 1.0492
 Frc consts  --      1.4723                 1.6477                 1.3477
 IR Inten    --     28.8454                 1.2566                 0.5486

                     37                     38                     39
                      A                      A                      A
 Frequencies --   1482.1727              1486.2538              1487.2409
 Red. masses --      1.0478                 1.7727                 1.5379
 Frc consts  --      1.3562                 2.3072                 2.0042
 IR Inten    --     52.4901                 7.3226                13.6237

                     40                     41                     42
                      A                      A                      A
 Frequencies --   1490.2117              1490.9856              1501.4664
 Red. masses --      1.0439                 1.2240                 1.0436
 Frc consts  --      1.3659                 1.6032                 1.3862
 IR Inten    --      0.1271               105.0959                17.3620

                     43                     44                     45
                      A                      A                      A
 Frequencies --   1512.7755              1534.6699              1544.0965
 Red. masses --      1.5126                 1.6299                 2.3037
 Frc consts  --      2.0395                 2.2617                 3.2361
 IR Inten    --     43.7567                 3.4240                41.1079

                     46                     47                     48
                      A                      A                      A
 Frequencies --   3067.1387              3067.7024              3088.1892
 Red. masses --      1.0402                 1.0401                 1.0371
 Frc consts  --      5.7656                 5.7673                 5.8276
 IR Inten    --     75.0042                 1.1712                12.6052

                     49                     50                     51
                      A                      A                      A
 Frequencies --   3090.3658              3124.7496              3124.8403
 Red. masses --      1.0371                 1.1008                 1.1007
 Frc consts  --      5.8356                 6.3324                 6.3327
 IR Inten    --     83.2043                 2.4858                36.2516

                     52                     53                     54
                      A                      A                      A
 Frequencies --   3161.7094              3162.6411              3184.4975
 Red. masses --      1.1053                 1.1055                 1.0983
 Frc consts  --      6.5096                 6.5148                 6.5622
 IR Inten    --      1.0202                25.4530                25.8511

                     55                     56                     57
                      A                      A                      A
 Frequencies --   3184.6735              3219.5309              3220.4828
 Red. masses --      1.0982                 1.0999                 1.1000
 Frc consts  --      6.5625                 6.7173                 6.7217
 IR Inten    --      0.0635                 2.6861                 0.7518

 - Thermochemistry -
 -------------------
 Temperature   298.150 Kelvin.  Pressure   1.00000 Atm.
 Atom     1 has atomic number  7 and mass  14.00307

 Molecular mass:   124.10005 amu.
 Principal axes and moments of inertia in atomic units:
                           1         2         3
     Eigenvalues --   715.053091150.714511820.37440
           X            1.00000   0.00000  -0.00037
           Y            0.00000   1.00000   0.00001
           Z            0.00037  -0.00001   1.00000
 This molecule is an asymmetric top.
 Rotational symmetry number  1.
 Warning -- assumption of classical behavior for rotation
           may cause significant error
 Rotational temperatures (Kelvin)      0.12113     0.07527     0.04758
 Rotational constants (GHZ):           2.52393     1.56837     0.99141
 Zero-point vibrational energy     482597.0 (Joules/Mol)
                                  115.34344 (Kcal/Mol)
 Warning -- explicit consideration of  15 degrees of freedom as
           vibrations may cause significant error
 Vibrational temperatures:    135.60   190.13   201.28   218.06   230.22
          (Kelvin)            288.91   335.02   421.25   440.43   457.40
                              486.15   791.78   858.98   864.18   892.94
                              959.06  1057.16  1222.40  1424.82  1455.03
                             1504.16  1514.69  1529.79  1645.82  1648.00
                             1660.31  1707.35  1773.75  1973.33  2001.48
                             2027.31  2066.68  2068.11  2092.99  2113.80
                             2124.38  2132.51  2138.39  2139.81  2144.08
                             2145.19  2160.27  2176.54  2208.04  2221.61
                             4412.92  4413.73  4443.21  4446.34  4495.81
                             4495.94  4548.99  4550.33  4581.78  4582.03
                             4632.18  4633.55

 Zero-point correction=                           0.183811 (Hartree/Particle)
 Thermal correction to Energy=                    0.193983
 Thermal correction to Enthalpy=                  0.194927
 Thermal correction to Gibbs Free Energy=         0.149057
 Sum of electronic and zero-point Energies=           -383.102461
 Sum of electronic and thermal Energies=              -383.092289
 Sum of electronic and thermal Enthalpies=            -383.091345
 Sum of electronic and thermal Free Energies=         -383.137216

                     E (Thermal)             CV                S
                      KCal/Mol        Cal/Mol-Kelvin    Cal/Mol-Kelvin
 Total                  121.726             36.465             96.543
 Electronic               0.000              0.000              0.000
 Translational            0.889              2.981             40.362
 Rotational               0.889              2.981             28.795
 Vibrational            119.949             30.504             27.386
 Vibration     1          0.603              1.953              3.570
 Vibration     2          0.612              1.921              2.915
 Vibration     3          0.615              1.913              2.805
 Vibration     4          0.619              1.901              2.653
 Vibration     5          0.622              1.891              2.550
 Vibration     6          0.638              1.839              2.126
 Vibration     7          0.654              1.791              1.857
 Vibration     8          0.688              1.687              1.458
 Vibration     9          0.697              1.662              1.383
 Vibration    10          0.704              1.639              1.321
 Vibration    11          0.718              1.600              1.222
 Vibration    12          0.906              1.139              0.544
 Vibration    13          0.955              1.038              0.455
 Vibration    14          0.959              1.030              0.449
 Vibration    15          0.981              0.988              0.416

 Normal termination of Gaussian 09 at Tue Oct  5 00:44:59 2021.
