 Gaussian 09, Revision D.01,
 Gaussian 09:  ES64L-G09RevD.01 24-Apr-2013

 ----------------------------------------------------------
 #p opt freq n12sx/6-311+g(d,p) scrf=(iefpcm,solvent=water)
 ----------------------------------------------------------

 -----
 TITLE
 -----
 Symbolic Z-matrix:
 Charge =  0 Multiplicity = 1

 SCF Done:  E(RN12SX) =  -532.469469727     A.U. after   14 cycles
 SCF Done:  E(RN12SX) =  -532.498096614     A.U. after   13 cycles
 SCF Done:  E(RN12SX) =  -532.519157744     A.U. after   13 cycles
 SCF Done:  E(RN12SX) =  -532.535258748     A.U. after   12 cycles
 SCF Done:  E(RN12SX) =  -532.546796017     A.U. after   12 cycles
 SCF Done:  E(RN12SX) =  -532.550826984     A.U. after   11 cycles
 SCF Done:  E(RN12SX) =  -532.555654010     A.U. after   14 cycles
 SCF Done:  E(RN12SX) =  -532.559961134     A.U. after   13 cycles
 SCF Done:  E(RN12SX) =  -532.563054599     A.U. after   13 cycles
 SCF Done:  E(RN12SX) =  -532.564611032     A.U. after   12 cycles
 SCF Done:  E(RN12SX) =  -532.567256413     A.U. after   11 cycles
 SCF Done:  E(RN12SX) =  -532.567289512     A.U. after   10 cycles
 SCF Done:  E(RN12SX) =  -532.567304626     A.U. after    9 cycles
 SCF Done:  E(RN12SX) =  -532.567319414     A.U. after   10 cycles
 SCF Done:  E(RN12SX) =  -532.567331856     A.U. after   10 cycles
 SCF Done:  E(RN12SX) =  -532.567339178     A.U. after   10 cycles
 SCF Done:  E(RN12SX) =  -532.567340979     A.U. after    9 cycles
 SCF Done:  E(RN12SX) =  -532.567341714     A.U. after    8 cycles
 SCF Done:  E(RN12SX) =  -532.567341932     A.U. after    7 cycles
 Optimization completed.
    -- Stationary point found.

 1\1\GINC-RENIO\FOpt\RN12SX\6-311+G(d,p)\C7H10N2O2\USER\09-Jun-2021\0\\
 #p opt freq n12sx/6-311+g(d,p) scrf=(iefpcm,solvent=water)\\TITLE\\0,1
 \C,-2.0872150153,1.5643460088,-0.9452791691\C,-3.2308195989,0.88907052
 38,-1.6796329893\C,-4.1652530107,0.1947984197,-0.7508729262\N,-3.62019
 48529,-0.6138225896,0.2668921534\C,-2.3837097415,-1.1408734619,0.43503
 17384\N,-1.265843404,-0.6474821885,-0.1494691206\C,-0.9630247136,0.627
 3553325,-0.6693066365\O,-5.3658958777,0.2844121406,-0.8531541412\O,0.1
 921293017,0.9290094442,-0.8551949779\C,-4.6483336185,-1.2134092299,1.1

 Normal termination of Gaussian 09 at Wed Jun  9 00:53:29 2021.

 ----------------------------------------------------------------------
 #P Geom=AllCheck Guess=TCheck SCRF=Check GenChk RN12SX/6-311+G(d,p) Fr
 eq
 ----------------------------------------------------------------------

 Structure from the checkpoint file:  "NHC21.chk"
 -----
 TITLE
 -----
 Charge =  0 Multiplicity = 1

                         Standard orientation:
 ---------------------------------------------------------------------
 Center     Atomic      Atomic             Coordinates (Angstroms)
 Number     Number       Type             X           Y           Z
 ---------------------------------------------------------------------
      1          6           0       -0.557087    1.615007   -0.514929
      2          6           0        0.557179    1.614772    0.515370
      3          6           0        1.601713    0.596470    0.215730
      4          7           0        1.187642   -0.703837   -0.137186
      5          6           0       -0.000036   -1.340606    0.000270
      6          7           0       -1.187675   -0.703860    0.137272
      7          6           0       -1.601688    0.596545   -0.215831
      8          8           0        2.783098    0.840543    0.284970
      9          8           0       -2.783017    0.840531   -0.285578
     10          6           0        2.314916   -1.599449   -0.438385
     11          6           0       -2.314985   -1.599339    0.438318
     12          1           0       -1.058833    2.575825   -0.542162
     13          1           0       -0.159576    1.431200   -1.515048
     14          1           0        1.058842    2.575617    0.543215
     15          1           0        0.159553    1.430481    1.515368
     16          1           0        2.967110   -1.694910    0.424956
     17          1           0        1.899542   -2.560909   -0.702160
     18          1           0        2.889494   -1.198409   -1.267188
     19          1           0       -1.899825   -2.561016    0.701651
     20          1           0       -2.889438   -1.198537    1.267321
     21          1           0       -2.967351   -1.694457   -0.424943
 ---------------------------------------------------------------------

 SCF Done:  E(RN12SX) =  -532.567341932     A.U. after    1 cycles

 The electronic state is 1-A.
 Alpha  occ. eigenvalues --  -19.17580 -19.17577 -14.43386 -14.43384 -10.35641
 Alpha  occ. eigenvalues --  -10.35639 -10.28638 -10.24868 -10.24840 -10.24652
 Alpha  occ. eigenvalues --  -10.24652  -1.08094  -1.07564  -0.99050  -0.93802
 Alpha  occ. eigenvalues --   -0.83187  -0.73492  -0.73296  -0.68662  -0.67147
 Alpha  occ. eigenvalues --   -0.62248  -0.53904  -0.53175  -0.50293  -0.48742
 Alpha  occ. eigenvalues --   -0.47332  -0.47081  -0.45736  -0.44070  -0.42813
 Alpha  occ. eigenvalues --   -0.41438  -0.40274  -0.39970  -0.39384  -0.37196
 Alpha  occ. eigenvalues --   -0.36831  -0.34726  -0.30314  -0.30130  -0.27894
 Alpha  occ. eigenvalues --   -0.21415
 Alpha virt. eigenvalues --   -0.07658  -0.02319  -0.00268   0.00789   0.00934
 Alpha virt. eigenvalues --    0.01192   0.02833   0.03315   0.03375   0.03441
 Alpha virt. eigenvalues --    0.04504   0.05417   0.06502   0.06503   0.06823

 Mulliken charges:
               1
     1  C   -0.395322
     2  C   -0.395645
     3  C    0.107211
     4  N   -0.020689
     5  C   -0.308158
     6  N   -0.020691
     7  C    0.107247
     8  O   -0.349350
     9  O   -0.349251
    10  C   -0.202875
    11  C   -0.202900
    12  H    0.225574
    13  H    0.242442
    14  H    0.225570
    15  H    0.242437
    16  H    0.185762
    17  H    0.180747
    18  H    0.180692
    19  H    0.180762
    20  H    0.180717
    21  H    0.185721
 Sum of Mulliken charges =   0.00000

 Dipole moment (field-independent basis, Debye):
    X=             -0.0020    Y=              0.5507    Z=              0.0007  Tot=              0.5507
 Quadrupole moment (field-independent basis, Debye-Ang):
   XX=            -82.6752   YY=            -63.4573   ZZ=            -61.4979
   XY=             -0.0020   XZ=             -4.3564   YZ=              0.0037

  Exact polarizability: 177.079   0.003 134.627   2.688  -0.003  94.647
 Approx polarizability: 200.908   0.006 143.859   3.461  -0.004 110.581

                      1                      2                      3
                      A                      A                      A
 Frequencies --     52.1210                63.2453               161.9625
 Red. masses --      4.5127                 4.1406                 1.5040
 Frc consts  --      0.0072                 0.0098                 0.0232
 IR Inten    --     13.0303                 0.1904                 2.0695

                      4                      5                      6
                      A                      A                      A
 Frequencies --    175.3112               193.3181               197.9298
 Red. masses --      1.2521                 1.5484                 2.2200
 Frc consts  --      0.0227                 0.0341                 0.0512
 IR Inten    --      3.4822                 3.2273                11.3816

                      7                      8                      9
                      A                      A                      A
 Frequencies --    312.4860               321.0318               357.5116
 Red. masses --      3.1733                 4.1206                 3.5996
 Frc consts  --      0.1826                 0.2502                 0.2711
 IR Inten    --     13.2676                33.2123                 5.4621

                     10                     11                     12
                      A                      A                      A
 Frequencies --    364.9672               384.0690               404.4694
 Red. masses --      7.0323                 4.4843                 3.8659
 Frc consts  --      0.5519                 0.3897                 0.3726
 IR Inten    --     64.0860                 0.0178                 3.9162

                     13                     14                     15
                      A                      A                      A
 Frequencies --    452.1586               511.5608               623.3435
 Red. masses --      6.9982                 2.3501                 4.2912
 Frc consts  --      0.8430                 0.3624                 0.9824
 IR Inten    --     35.6023                11.9077                 3.9483

                     16                     17                     18
                      A                      A                      A
 Frequencies --    635.5416               664.3019               746.5214
 Red. masses --      4.3702                 2.5854                 8.6018
 Frc consts  --      1.0400                 0.6722                 2.8244
 IR Inten    --      2.2125                 9.2134                16.2878

                     19                     20                     21
                      A                      A                      A
 Frequencies --    755.6013               828.6281               893.1215
 Red. masses --      4.5780                 3.4427                 2.3579
 Frc consts  --      1.5400                 1.3927                 1.1082
 IR Inten    --    107.3118                60.2725                49.2921

                     22                     23                     24
                      A                      A                      A
 Frequencies --    994.1268              1019.6738              1067.4510
 Red. masses --      2.2252                 2.2153                 3.8614
 Frc consts  --      1.2957                 1.3571                 2.5924
 IR Inten    --     40.4513                 4.8547                93.7432

                     25                     26                     27
                      A                      A                      A
 Frequencies --   1078.2643              1146.4175              1149.1519
 Red. masses --      2.1309                 1.8797                 2.5623
 Frc consts  --      1.4597                 1.4555                 1.9936
 IR Inten    --     41.3235               229.6211                44.9665

                     28                     29                     30
                      A                      A                      A
 Frequencies --   1153.9547              1158.0165              1190.7961
 Red. masses --      1.4164                 1.3497                 1.2866
 Frc consts  --      1.1112                 1.0664                 1.0749
 IR Inten    --     25.3166                 2.3757                16.8107

                     31                     32                     33
                      A                      A                      A
 Frequencies --   1252.0257              1256.5710              1300.3994
 Red. masses --      1.8001                 2.7498                 3.9457
 Frc consts  --      1.6625                 2.5581                 3.9312
 IR Inten    --    149.4511               321.6761                22.5170

                     34                     35                     36
                      A                      A                      A
 Frequencies --   1345.8502              1371.4362              1384.0246
 Red. masses --      2.2913                 1.5600                 2.1219
 Frc consts  --      2.4453                 1.7287                 2.3948
 IR Inten    --    217.4781               144.3743               185.8043

                     37                     38                     39
                      A                      A                      A
 Frequencies --   1414.7004              1445.9622              1461.0454
 Red. masses --      1.7048                 1.1999                 1.0903
 Frc consts  --      2.0103                 1.4781                 1.3713
 IR Inten    --    212.0427                43.4189                42.9219

                     40                     41                     42
                      A                      A                      A
 Frequencies --   1462.8665              1470.8867              1486.1476
 Red. masses --      1.1766                 1.2684                 1.0436
 Frc consts  --      1.4835                 1.6168                 1.3580
 IR Inten    --     83.9140                74.8172                 1.9068

                     43                     44                     45
                      A                      A                      A
 Frequencies --   1486.5363              1496.7384              1516.3774
 Red. masses --      1.0478                 1.0614                 1.6103
 Frc consts  --      1.3642                 1.4009                 2.1815
 IR Inten    --     30.0136                40.2216               360.3753

                     46                     47                     48
                      A                      A                      A
 Frequencies --   1772.0909              1786.9437              3080.4144
 Red. masses --     11.5409                11.9767                 1.0713
 Frc consts  --     21.3532                22.5325                 5.9891
 IR Inten    --   1055.6397                98.0599                 0.0577

                     49                     50                     51
                      A                      A                      A
 Frequencies --   3088.8251              3104.2581              3104.9966
 Red. masses --      1.0678                 1.0351                 1.0351
 Frc consts  --      6.0023                 5.8769                 5.8799
 IR Inten    --     10.2280                64.8499                11.9914

                     52                     53                     54
                      A                      A                      A
 Frequencies --   3178.0707              3181.8914              3181.9604
 Red. masses --      1.0966                 1.1051                 1.1051
 Frc consts  --      6.5259                 6.5920                 6.5923
 IR Inten    --      1.2763                23.6000                15.9207

                     55                     56                     57
                      A                      A                      A
 Frequencies --   3182.7352              3238.7961              3238.9871
 Red. masses --      1.0932                 1.1035                 1.1036
 Frc consts  --      6.5243                 6.8201                 6.8217
 IR Inten    --      3.8787                 3.5814                 2.4208

 - Thermochemistry -
 -------------------
 Temperature   298.150 Kelvin.  Pressure   1.00000 Atm.
 Atom     1 has atomic number  6 and mass  12.00000

 Molecular mass:   154.07423 amu.
 Principal axes and moments of inertia in atomic units:
                           1         2         3
     Eigenvalues --   910.234841978.794642710.63322
           X            0.99993   0.00000  -0.01147
           Y            0.00000   1.00000   0.00001
           Z            0.01147  -0.00001   0.99993
 This molecule is an asymmetric top.
 Rotational symmetry number  1.
 Warning -- assumption of classical behavior for rotation
           may cause significant error
 Rotational temperatures (Kelvin)      0.09516     0.04377     0.03195
 Rotational constants (GHZ):           1.98272     0.91204     0.66580
 Zero-point vibrational energy     450684.7 (Joules/Mol)
                                  107.71622 (Kcal/Mol)
 Warning -- explicit consideration of  14 degrees of freedom as
           vibrations may cause significant error
 Vibrational temperatures:     74.99    91.00   233.03   252.23   278.14
          (Kelvin)            284.78   449.60   461.89   514.38   525.11
                              552.59   581.94   650.55   736.02   896.85
                              914.40   955.78  1074.08  1087.14  1192.21
                             1285.00  1430.32  1467.08  1535.82  1551.38
                             1649.44  1653.37  1660.28  1666.13  1713.29
                             1801.38  1807.92  1870.98  1936.38  1973.19
                             1991.30  2035.44  2080.41  2102.12  2104.74
                             2116.28  2138.23  2138.79  2153.47  2181.73
                             2549.64  2571.01  4432.02  4444.12  4466.33
                             4467.39  4572.53  4578.03  4578.13  4579.24
                             4659.90  4660.17

 Zero-point correction=                           0.171657 (Hartree/Particle)
 Thermal correction to Energy=                    0.182164
 Thermal correction to Enthalpy=                  0.183108
 Thermal correction to Gibbs Free Energy=         0.135392
 Sum of electronic and zero-point Energies=           -532.395685
 Sum of electronic and thermal Energies=              -532.385178
 Sum of electronic and thermal Enthalpies=            -532.384234
 Sum of electronic and thermal Free Energies=         -532.431950

                     E (Thermal)             CV                S
                      KCal/Mol        Cal/Mol-Kelvin    Cal/Mol-Kelvin
 Total                  114.310             38.884            100.428
 Electronic               0.000              0.000              0.000
 Translational            0.889              2.981             41.007
 Rotational               0.889              2.981             29.969
 Vibrational            112.532             32.923             29.452
 Vibration     1          0.596              1.977              4.735
 Vibration     2          0.597              1.972              4.353
 Vibration     3          0.622              1.889              2.527
 Vibration     4          0.627              1.873              2.378
 Vibration     5          0.635              1.849              2.196
 Vibration     6          0.637              1.843              2.152
 Vibration     7          0.701              1.650              1.349
 Vibration     8          0.706              1.633              1.305
 Vibration     9          0.733              1.560              1.133
 Vibration    10          0.738              1.544              1.101
 Vibration    11          0.753              1.504              1.023
 Vibration    12          0.770              1.460              0.946
 Vibration    13          0.811              1.356              0.789
 Vibration    14          0.867              1.224              0.630

 Optimization completed.
    -- Stationary point found.

 1\1\GINC-RENIO\Freq\RN12SX\6-311+G(d,p)\C7H10N2O2\USER\09-Jun-2021\0\\
 #P Geom=AllCheck Guess=TCheck SCRF=Check GenChk RN12SX/6-311+G(d,p) Fr
 eq\\TITLE\\0,1\C,-2.0872150153,1.5643460088,-0.9452791691\C,-3.2308195
 989,0.8890705238,-1.6796329893\C,-4.1652530107,0.1947984197,-0.7508729
 262\N,-3.6201948529,-0.6138225896,0.2668921534\C,-2.3837097415,-1.1408
 734619,0.4350317384\N,-1.265843404,-0.6474821885,-0.1494691206\C,-0.96
 30247136,0.6273553325,-0.6693066365\O,-5.3658958777,0.2844121406,-0.85
 31541412\O,0.1921293017,0.9290094442,-0.8551949779\C,-4.6483336185,-1.

 Normal termination of Gaussian 09 at Wed Jun  9 01:05:29 2021.
