 Gaussian 09, Revision D.01,
 Gaussian 09:  ES64L-G09RevD.01 24-Apr-2013

 ----------------------------------------------------------
 #p opt freq n12sx/6-311+g(d,p) scrf=(iefpcm,solvent=water)
 ----------------------------------------------------------

 -----
 TITLE
 -----
 Symbolic Z-matrix:
 Charge =  0 Multiplicity = 1

 SCF Done:  E(RN12SX) =  -458.300548862     A.U. after   15 cycles
 SCF Done:  E(RN12SX) =  -458.301254501     A.U. after   11 cycles
 SCF Done:  E(RN12SX) =  -458.301362172     A.U. after   11 cycles
 SCF Done:  E(RN12SX) =  -458.301417314     A.U. after   10 cycles
 SCF Done:  E(RN12SX) =  -458.302000931     A.U. after   14 cycles
 SCF Done:  E(RN12SX) =  -458.302491682     A.U. after   10 cycles
 SCF Done:  E(RN12SX) =  -458.302300460     A.U. after   12 cycles
 SCF Done:  E(RN12SX) =  -458.303628357     A.U. after   10 cycles
 SCF Done:  E(RN12SX) =  -458.304023159     A.U. after   11 cycles
 SCF Done:  E(RN12SX) =  -458.304086539     A.U. after   10 cycles
 SCF Done:  E(RN12SX) =  -458.304120352     A.U. after   10 cycles
 SCF Done:  E(RN12SX) =  -458.304137864     A.U. after   10 cycles
 SCF Done:  E(RN12SX) =  -458.304149527     A.U. after   10 cycles
 SCF Done:  E(RN12SX) =  -458.304159345     A.U. after   11 cycles
 SCF Done:  E(RN12SX) =  -458.304170965     A.U. after   11 cycles
 SCF Done:  E(RN12SX) =  -458.304177119     A.U. after   10 cycles
 SCF Done:  E(RN12SX) =  -458.304179831     A.U. after    9 cycles
 SCF Done:  E(RN12SX) =  -458.304179987     A.U. after    9 cycles
 SCF Done:  E(RN12SX) =  -458.304180002     A.U. after    7 cycles
 Optimization completed.
    -- Stationary point found.
 Normal termination of Gaussian 09 at Tue Oct  5 01:04:59 2021.

 ----------------------------------------------------------------------
 #P Geom=AllCheck Guess=TCheck SCRF=Check GenChk RN12SX/6-311+G(d,p) Fr
 eq
 ----------------------------------------------------------------------

 Structure from the checkpoint file:  "NHC28.chk"
 -----
 TITLE
 -----
 Charge =  0 Multiplicity = 1

                         Standard orientation:
 ---------------------------------------------------------------------
 Center     Atomic      Atomic             Coordinates (Angstroms)
 Number     Number       Type             X           Y           Z
 ---------------------------------------------------------------------
      1          7           0       -1.045548    0.611227    0.084711
      2          6           0        0.296010    0.445648    0.043496
      3          6           0        0.546399   -0.942498   -0.014808
      4          6           0       -0.702924   -1.650774   -0.037281
      5          7           0       -1.593645   -0.667040    0.001725
      6          6           0        1.326980    1.387496    0.055688
      7          6           0        2.616359    0.900749    0.024458
      8          6           0        2.893353   -0.477031   -0.021101
      9          6           0        1.868555   -1.397473   -0.041685
     10          6           0       -1.804355    1.818737   -0.112660
     11          6           0       -3.032377   -0.798262    0.049148
     12          1           0        1.134841    2.448994    0.088798
     13          1           0        3.439356    1.600403    0.034793
     14          1           0        3.920709   -0.807614   -0.043244
     15          1           0        2.072943   -2.457738   -0.080857
     16          1           0       -1.176191    2.657659    0.166242
     17          1           0       -2.110062    1.937994   -1.151645
     18          1           0       -2.680421    1.830938    0.527806
     19          1           0       -3.422554   -0.427080    0.994129
     20          1           0       -3.499628   -0.259396   -0.771147
     21          1           0       -3.252641   -1.853018   -0.041463
 ---------------------------------------------------------------------

 SCF Done:  E(RN12SX) =  -458.304180002     A.U. after    1 cycles

 The electronic state is 1-A.
 Alpha  occ. eigenvalues --  -14.45616 -14.44260 -10.27156 -10.26514 -10.25841
 Alpha  occ. eigenvalues --  -10.23440 -10.23316 -10.23171 -10.22268 -10.22207
 Alpha  occ. eigenvalues --  -10.22069  -1.07230  -0.89309  -0.86386  -0.80284
 Alpha  occ. eigenvalues --   -0.75966  -0.71854  -0.70354  -0.63157  -0.61388
 Alpha  occ. eigenvalues --   -0.57428  -0.53040  -0.50606  -0.50440  -0.48895
 Alpha  occ. eigenvalues --   -0.44739  -0.44275  -0.43922  -0.42184  -0.41366
 Alpha  occ. eigenvalues --   -0.40780  -0.40065  -0.36357  -0.35280  -0.34779
 Alpha  occ. eigenvalues --   -0.29153  -0.25064  -0.21994  -0.21621
 Alpha virt. eigenvalues --   -0.05325  -0.00962  -0.00374   0.00469   0.01041
 Alpha virt. eigenvalues --    0.01507   0.02579   0.02721   0.03626   0.03676
 Alpha virt. eigenvalues --    0.05096   0.05182   0.05365   0.05883   0.06433

 Mulliken charges:
               1
     1  N    0.090331
     2  C   -0.775421
     3  C    0.914093
     4  C    0.005919
     5  N    0.072025
     6  C   -0.319579
     7  C   -0.234520
     8  C   -0.169225
     9  C   -0.650591
    10  C   -0.379510
    11  C   -0.359529
    12  H    0.148183
    13  H    0.162870
    14  H    0.156738
    15  H    0.154732
    16  H    0.184285
    17  H    0.212224
    18  H    0.187936
    19  H    0.205019
    20  H    0.193883
    21  H    0.200138
 Sum of Mulliken charges =   0.00000

 Dipole moment (field-independent basis, Debye):
    X=             -3.0655    Y=              6.5290    Z=             -0.0179  Tot=              7.2129
 Quadrupole moment (field-independent basis, Debye-Ang):
   XX=            -47.2909   YY=            -68.0522   ZZ=            -68.6221
   XY=             -5.1704   XZ=             -0.1107   YZ=             -0.3340

  Exact polarizability: 219.824   1.530 185.274  -0.027   1.310  98.719
 Approx polarizability: 254.149  -3.483 223.497  -1.178   3.091 114.461

                      1                      2                      3
                      A                      A                      A
 Frequencies --     71.8189               113.2191               136.1495
 Red. masses --      2.1657                 1.6299                 1.9614
 Frc consts  --      0.0066                 0.0123                 0.0214
 IR Inten    --      4.6223                 2.5864                 9.3767

                      4                      5                      6
                      A                      A                      A
 Frequencies --    175.9814               256.0165               267.3758
 Red. masses --      1.0929                 4.6638                 3.1736
 Frc consts  --      0.0199                 0.1801                 0.1337
 IR Inten    --      0.5306                 7.1608                 5.5832

                      7                      8                      9
                      A                      A                      A
 Frequencies --    290.7194               323.8791               445.3570
 Red. masses --      3.9264                 2.5614                 2.9833
 Frc consts  --      0.1955                 0.1583                 0.3486
 IR Inten    --      2.8453                 5.2147                 8.4993

                     10                     11                     12
                      A                      A                      A
 Frequencies --    498.9326               557.8725               566.8822
 Red. masses --      5.8455                 3.7256                 4.2458
 Frc consts  --      0.8573                 0.6831                 0.8039
 IR Inten    --      0.2889                 6.6849                10.1064

                     13                     14                     15
                      A                      A                      A
 Frequencies --    579.6495               608.9440               674.3024
 Red. masses --      5.2190                 5.6359                 5.7402
 Frc consts  --      1.0332                 1.2313                 1.5377
 IR Inten    --      4.9676                 4.6051                 0.3213

                     16                     17                     18
                      A                      A                      A
 Frequencies --    740.7105               768.9211               785.3033
 Red. masses --      4.9901                 1.3140                 3.8956
 Frc consts  --      1.6131                 0.4577                 1.4155
 IR Inten    --      0.4801               140.4855                 1.7081

                     19                     20                     21
                      A                      A                      A
 Frequencies --    875.4323               883.1096               920.3728
 Red. masses --      1.5109                 3.7912                 5.0120
 Frc consts  --      0.6822                 1.7421                 2.5014
 IR Inten    --      0.5473                18.8975                16.8458

                     22                     23                     24
                      A                      A                      A
 Frequencies --    983.2849              1015.3710              1039.5356
 Red. masses --      1.3648                 1.2981                 2.0608
 Frc consts  --      0.7775                 0.7885                 1.3121
 IR Inten    --      2.5120                 0.0396                21.9273

                     25                     26                     27
                      A                      A                      A
 Frequencies --   1074.4725              1124.2583              1139.5933
 Red. masses --      2.0217                 2.4826                 1.3934
 Frc consts  --      1.3752                 1.8488                 1.0662
 IR Inten    --     30.2423                 5.2461                15.5723

                     28                     29                     30
                      A                      A                      A
 Frequencies --   1149.0836              1154.9480              1181.7859
 Red. masses --      1.3392                 1.3716                 1.2666
 Frc consts  --      1.0418                 1.0779                 1.0422
 IR Inten    --      3.0130                10.4732                12.0448

                     31                     32                     33
                      A                      A                      A
 Frequencies --   1199.0247              1251.7449              1300.3215
 Red. masses --      2.1155                 2.4571                 4.4850
 Frc consts  --      1.7919                 2.2684                 4.4680
 IR Inten    --     31.7748                55.6854                18.1119

                     34                     35                     36
                      A                      A                      A
 Frequencies --   1329.8708              1388.6324              1432.1022
 Red. masses --      1.7746                 7.1758                 2.4100
 Frc consts  --      1.8491                 8.1526                 2.9122
 IR Inten    --     51.3336               113.1608                31.7390

                     37                     38                     39
                      A                      A                      A
 Frequencies --   1444.3881              1467.7903              1478.2044
 Red. masses --      1.2918                 1.2371                 1.4301
 Frc consts  --      1.5879                 1.5702                 1.8411
 IR Inten    --      4.1275                20.0634                61.9154

                     40                     41                     42
                      A                      A                      A
 Frequencies --   1481.3370              1490.0680              1499.3040
 Red. masses --      1.0433                 1.1565                 2.0129
 Frc consts  --      1.3489                 1.5129                 2.6660
 IR Inten    --      7.5436                44.9744                61.6205

                     43                     44                     45
                      A                      A                      A
 Frequencies --   1507.9985              1524.5452              1556.5188
 Red. masses --      1.3905                 1.9781                 3.2400
 Frc consts  --      1.8631                 2.7088                 4.6250
 IR Inten    --      0.7099                19.4264                55.4271

                     46                     47                     48
                      A                      A                      A
 Frequencies --   1629.3163              1684.6389              3076.5908
 Red. masses --      6.2688                 7.0891                 1.0405
 Frc consts  --      9.8049                11.8538                 5.8029
 IR Inten    --      8.5123               118.8972                58.7107

                     49                     50                     51
                      A                      A                      A
 Frequencies --   3088.8724              3161.9969              3163.9179
 Red. masses --      1.0369                 1.1043                 1.0989
 Frc consts  --      5.8286                 6.5049                 6.4810
 IR Inten    --     55.3306                 5.9111                23.9078

                     52                     53                     54
                      A                      A                      A
 Frequencies --   3197.2684              3216.6063              3224.2519
 Red. masses --      1.1035                 1.0864                 1.0895
 Frc consts  --      6.6465                 6.6227                 6.6733
 IR Inten    --      5.8820                 0.3200                 6.6911

                     55                     56                     57
                      A                      A                      A
 Frequencies --   3228.9221              3234.7030              3242.6887
 Red. masses --      1.1008                 1.0946                 1.0980
 Frc consts  --      6.7619                 6.7482                 6.8026
 IR Inten    --      1.6323                30.8814                18.9133

 - Thermochemistry -
 -------------------
 Temperature   298.150 Kelvin.  Pressure   1.00000 Atm.
 Atom     1 has atomic number  7 and mass  14.00307

 Molecular mass:   146.08440 amu.
 Principal axes and moments of inertia in atomic units:
                           1         2         3
     Eigenvalues --   715.563801931.735152621.21081
           X            0.99994  -0.01131   0.00029
           Y            0.01131   0.99993  -0.00244
           Z           -0.00026   0.00244   1.00000
 This molecule is an asymmetric top.
 Rotational symmetry number  1.
 Warning -- assumption of classical behavior for rotation
           may cause significant error
 Rotational temperatures (Kelvin)      0.12104     0.04484     0.03304
 Rotational constants (GHZ):           2.52212     0.93426     0.68851
 Zero-point vibrational energy     459993.5 (Joules/Mol)
                                  109.94108 (Kcal/Mol)
 Warning -- explicit consideration of  14 degrees of freedom as
           vibrations may cause significant error
 Vibrational temperatures:    103.33   162.90   195.89   253.20   368.35
          (Kelvin)            384.69   418.28   465.99   640.77   717.85
                              802.65   815.62   833.99   876.13   970.17
                             1065.72  1106.30  1129.87  1259.55  1270.60
                             1324.21  1414.73  1460.89  1495.66  1545.92
                             1617.55  1639.62  1653.27  1661.71  1700.32
                             1725.13  1800.98  1870.87  1913.39  1997.93
                             2060.47  2078.15  2111.82  2126.80  2131.31
                             2143.87  2157.16  2169.67  2193.48  2239.48
                             2344.22  2423.82  4426.52  4444.19  4549.40
                             4552.17  4600.15  4627.97  4638.97  4645.69
                             4654.01  4665.50

 Zero-point correction=                           0.175202 (Hartree/Particle)
 Thermal correction to Energy=                    0.184659
 Thermal correction to Enthalpy=                  0.185603
 Thermal correction to Gibbs Free Energy=         0.140506
 Sum of electronic and zero-point Energies=           -458.128978
 Sum of electronic and thermal Energies=              -458.119521
 Sum of electronic and thermal Enthalpies=            -458.118577
 Sum of electronic and thermal Free Energies=         -458.163674

                     E (Thermal)             CV                S
                      KCal/Mol        Cal/Mol-Kelvin    Cal/Mol-Kelvin
 Total                  115.875             36.180             94.915
 Electronic               0.000              0.000              0.000
 Translational            0.889              2.981             40.848
 Rotational               0.889              2.981             29.673
 Vibrational            114.098             30.219             24.395
 Vibration     1          0.598              1.967              4.103
 Vibration     2          0.607              1.939              3.213
 Vibration     3          0.614              1.917              2.857
 Vibration     4          0.628              1.872              2.371
 Vibration     5          0.666              1.753              1.689
 Vibration     6          0.672              1.733              1.613
 Vibration     7          0.687              1.691              1.470
 Vibration     8          0.708              1.628              1.290
 Vibration     9          0.805              1.371              0.810
 Vibration    10          0.854              1.252              0.661
 Vibration    11          0.913              1.122              0.528
 Vibration    12          0.923              1.103              0.510
 Vibration    13          0.936              1.075              0.486
 Vibration    14          0.968              1.013              0.435

 Optimization completed.
    -- Stationary point found.
 Normal termination of Gaussian 09 at Tue Oct  5 01:12:37 2021.
