 Gaussian 09, Revision D.01,
 Gaussian 09:  ES64L-G09RevD.01 24-Apr-2013

 ----------------------------------------------------------
 #p opt freq n12sx/6-311+g(d,p) scrf=(iefpcm,solvent=water)
 ----------------------------------------------------------

 -----
 TITLE
 -----
 Symbolic Z-matrix:
 Charge =  0 Multiplicity = 1

 SCF Done:  E(RN12SX) =  -525.337276471     A.U. after   15 cycles
 SCF Done:  E(RN12SX) =  -525.460238030     A.U. after   12 cycles
 SCF Done:  E(RN12SX) =  -525.557016191     A.U. after   12 cycles
 SCF Done:  E(RN12SX) =  -525.618752091     A.U. after   12 cycles
 SCF Done:  E(RN12SX) =  -525.655689663     A.U. after   12 cycles
 SCF Done:  E(RN12SX) =  -525.667523276     A.U. after   12 cycles
 SCF Done:  E(RN12SX) =  -525.671806112     A.U. after   11 cycles
 SCF Done:  E(RN12SX) =  -525.675034398     A.U. after   11 cycles
 SCF Done:  E(RN12SX) =  -525.677603774     A.U. after   11 cycles
 SCF Done:  E(RN12SX) =  -525.680761996     A.U. after   11 cycles
 SCF Done:  E(RN12SX) =  -525.690338167     A.U. after    9 cycles
 SCF Done:  E(RN12SX) =  -525.690341295     A.U. after    9 cycles
 SCF Done:  E(RN12SX) =  -525.690343854     A.U. after    9 cycles
 SCF Done:  E(RN12SX) =  -525.690345769     A.U. after    9 cycles
 SCF Done:  E(RN12SX) =  -525.690347135     A.U. after    8 cycles
 SCF Done:  E(RN12SX) =  -525.690347713     A.U. after    8 cycles
 SCF Done:  E(RN12SX) =  -525.690347850     A.U. after    8 cycles
 SCF Done:  E(RN12SX) =  -525.690347978     A.U. after    8 cycles
 SCF Done:  E(RN12SX) =  -525.690348028     A.U. after    7 cycles
 Optimization completed.
    -- Stationary point found.
 Normal termination of Gaussian 09 at Mon Jun 21 02:49:43 2021.

 ----------------------------------------------------------------------
 #P Geom=AllCheck Guess=TCheck SCRF=Check GenChk RN12SX/6-311+G(d,p) Fr
 eq
 ----------------------------------------------------------------------

 Structure from the checkpoint file:  "NHC23.chk"
 -----
 TITLE
 -----
 Charge =  0 Multiplicity = 1

                         Standard orientation:
 ---------------------------------------------------------------------
 Center     Atomic      Atomic             Coordinates (Angstroms)
 Number     Number       Type             X           Y           Z
 ---------------------------------------------------------------------
      1          6           0       -0.165251    1.236437   -0.046142
      2          6           0       -1.665763    1.028438   -0.294774
      3          6           0       -1.942837   -0.461473   -0.060419
      4          6           0       -0.590980   -1.126124   -0.112544
      5          7           0        0.326223   -0.200144   -0.123997
      6          6           0       -2.868532   -1.044567   -1.124681
      7          6           0       -2.539380   -0.738223    1.324406
      8          6           0        0.390726    2.156874   -1.130818
      9          6           0        0.101107    1.823411    1.338165
     10          6           0        1.770162   -0.628490   -0.011545
     11          6           0        2.005586   -1.103217    1.421986
     12          6           0        2.775949    0.466393   -0.350353
     13          6           0        2.010474   -1.782634   -0.981535
     14          1           0       -2.262964    1.681730    0.338016
     15          1           0       -1.894809    1.283737   -1.328196
     16          1           0       -3.028832   -2.108426   -0.958185
     17          1           0       -3.837578   -0.545099   -1.099006
     18          1           0       -2.450936   -0.916650   -2.122553
     19          1           0       -1.916001   -0.344567    2.124689
     20          1           0       -3.521350   -0.271493    1.402258
     21          1           0       -2.655347   -1.808378    1.486059
     22          1           0        1.386748    2.527547   -0.919726
     23          1           0       -0.267152    3.021417   -1.206230
     24          1           0        0.395607    1.659133   -2.098519
     25          1           0       -0.341429    1.212935    2.121194
     26          1           0        1.163015    1.923013    1.545534
     27          1           0       -0.338647    2.817784    1.394976
     28          1           0        3.022972   -1.475604    1.528435
     29          1           0        1.864641   -0.295033    2.136538
     30          1           0        1.311851   -1.904739    1.663493
     31          1           0        2.687682    0.794966   -1.381715
     32          1           0        3.771781    0.046809   -0.224801
     33          1           0        2.708725    1.329536    0.304058
     34          1           0        1.355328   -2.616660   -0.759250
     35          1           0        1.828989   -1.464823   -2.007090
     36          1           0        3.046570   -2.107082   -0.902469
 ---------------------------------------------------------------------

 SCF Done:  E(RN12SX) =  -525.690348028     A.U. after    1 cycles

 The electronic state is 1-A.
 Alpha  occ. eigenvalues --  -14.40141 -10.27073 -10.27059 -10.22463 -10.21531
 Alpha  occ. eigenvalues --  -10.20785 -10.20742 -10.20579 -10.20575 -10.20350
 Alpha  occ. eigenvalues --  -10.20211 -10.20049 -10.19826  -0.96394  -0.83651
 Alpha  occ. eigenvalues --   -0.79693  -0.78348  -0.69885  -0.69050  -0.68556
 Alpha  occ. eigenvalues --   -0.68237  -0.68116  -0.62949  -0.58563  -0.54484
 Alpha  occ. eigenvalues --   -0.50751  -0.47729  -0.46587  -0.44874  -0.44728
 Alpha  occ. eigenvalues --   -0.43245  -0.43058  -0.41525  -0.40514  -0.39768
 Alpha  occ. eigenvalues --   -0.39502  -0.38760  -0.38270  -0.37934  -0.37052
 Alpha  occ. eigenvalues --   -0.36090  -0.35903  -0.34951  -0.34844  -0.33445
 Alpha  occ. eigenvalues --   -0.32497  -0.32095  -0.32007  -0.30066  -0.27367
 Alpha  occ. eigenvalues --   -0.19066
 Alpha virt. eigenvalues --   -0.01179  -0.00472   0.00582   0.00947   0.00992
 Alpha virt. eigenvalues --    0.02297   0.02677   0.02939   0.03198   0.03218
 Alpha virt. eigenvalues --    0.04798   0.04882   0.05129   0.05389   0.05870

 Mulliken charges:
               1
     1  C   -0.183823
     2  C   -0.732291
     3  C    0.676555
     4  C   -0.629648
     5  N    0.907310
     6  C   -0.601324
     7  C   -0.571041
     8  C   -0.660408
     9  C   -0.586225
    10  C   -0.255766
    11  C   -0.489484
    12  C   -0.466628
    13  C   -0.434955
    14  H    0.183970
    15  H    0.187168
    16  H    0.165365
    17  H    0.164893
    18  H    0.165363
    19  H    0.156349
    20  H    0.167991
    21  H    0.171803
    22  H    0.175800
    23  H    0.183550
    24  H    0.193142
    25  H    0.179434
    26  H    0.177189
    27  H    0.185101
    28  H    0.171616
    29  H    0.166947
    30  H    0.176987
    31  H    0.184322
    32  H    0.181181
    33  H    0.170529
    34  H    0.184634
    35  H    0.167976
    36  H    0.166418
 Sum of Mulliken charges =   0.00000

 Dipole moment (field-independent basis, Debye):
    X=              1.3261    Y=              4.1821    Z=              0.2899  Tot=              4.3969
 Quadrupole moment (field-independent basis, Debye-Ang):
   XX=            -78.9144   YY=            -88.9464   ZZ=            -83.7422
   XY=             -2.6052   XZ=             -0.2177   YZ=             -0.4911

  Exact polarizability: 209.724   8.121 202.060   0.175  -0.066 182.433
 Approx polarizability: 218.154   8.051 214.045   0.225   0.073 198.707

                      1                      2                      3
                      A                      A                      A
 Frequencies --     57.1473                86.0864               101.2526
 Red. masses --      2.7496                 3.0077                 2.5988
 Frc consts  --      0.0053                 0.0131                 0.0157
 IR Inten    --      1.2619                 5.4531                 0.0908

                      4                      5                      6
                      A                      A                      A
 Frequencies --    195.1658               196.6833               221.0125
 Red. masses --      1.7323                 2.5851                 1.0547
 Frc consts  --      0.0389                 0.0589                 0.0304
 IR Inten    --      0.1938                 2.3217                 0.5268

                      7                      8                      9
                      A                      A                      A
 Frequencies --    229.6638               254.1654               257.8400
 Red. masses --      1.1451                 1.2568                 1.2027
 Frc consts  --      0.0356                 0.0478                 0.0471
 IR Inten    --      0.0164                 0.4636                 0.3517

                     10                     11                     12
                      A                      A                      A
 Frequencies --    264.0911               271.4855               286.2453
 Red. masses --      1.1799                 1.5388                 1.4550
 Frc consts  --      0.0485                 0.0668                 0.0702
 IR Inten    --      0.3907                 0.2385                 0.7126

                     13                     14                     15
                      A                      A                      A
 Frequencies --    292.2625               314.1934               319.1507
 Red. masses --      2.4205                 2.0503                 2.5333
 Frc consts  --      0.1218                 0.1192                 0.1520
 IR Inten    --      0.3547                 0.0377                 3.8622

                     16                     17                     18
                      A                      A                      A
 Frequencies --    344.6827               352.4853               377.9938
 Red. masses --      1.9781                 1.5463                 1.7949
 Frc consts  --      0.1385                 0.1132                 0.1511
 IR Inten    --      0.9068                 0.9960                 2.3719

                     19                     20                     21
                      A                      A                      A
 Frequencies --    379.0154               402.7462               415.4673
 Red. masses --      1.7981                 2.1058                 2.1591
 Frc consts  --      0.1522                 0.2012                 0.2196
 IR Inten    --      0.9499                 3.1185                 0.3168

                     22                     23                     24
                      A                      A                      A
 Frequencies --    431.5641               505.8307               542.4045
 Red. masses --      2.0524                 3.7998                 2.4953
 Frc consts  --      0.2252                 0.5728                 0.4325
 IR Inten    --      1.8962                21.8127                 6.4878

                     25                     26                     27
                      A                      A                      A
 Frequencies --    570.6747               579.7619               643.0774
 Red. masses --      2.6714                 3.0777                 5.3354
 Frc consts  --      0.5126                 0.6095                 1.3000
 IR Inten    --      3.0318                 3.0838                 2.6743

                     28                     29                     30
                      A                      A                      A
 Frequencies --    704.5689               819.3074               849.9894
 Red. masses --      5.0522                 3.3559                 2.9808
 Frc consts  --      1.4777                 1.3273                 1.2688
 IR Inten    --      2.9314                 1.7566                 4.3207

                     31                     32                     33
                      A                      A                      A
 Frequencies --    874.3833               916.2618               931.1693
 Red. masses --      2.4199                 1.7718                 2.2583
 Frc consts  --      1.0901                 0.8764                 1.1537
 IR Inten    --      0.1762                 1.5644                 1.5412

                     34                     35                     36
                      A                      A                      A
 Frequencies --    941.9371               946.8870               949.9922
 Red. masses --      1.6468                 1.6895                 1.4702
 Frc consts  --      0.8609                 0.8925                 0.7817
 IR Inten    --      1.4206                 5.4041                 0.0961

                     37                     38                     39
                      A                      A                      A
 Frequencies --    963.1770               966.6836               985.9630
 Red. masses --      1.3376                 1.2171                 1.7667
 Frc consts  --      0.7311                 0.6701                 1.0119
 IR Inten    --      1.4581                 0.3334                 1.3913

                     40                     41                     42
                      A                      A                      A
 Frequencies --    996.2315              1017.0249              1026.0732
 Red. masses --      1.6768                 1.3522                 1.6901
 Frc consts  --      0.9805                 0.8240                 1.0484
 IR Inten    --      7.6238                 0.5351                 0.9502

                     43                     44                     45
                      A                      A                      A
 Frequencies --   1032.4766              1052.8479              1074.3683
 Red. masses --      1.6558                 1.4018                 1.7144
 Frc consts  --      1.0400                 0.9155                 1.1659
 IR Inten    --      1.3026                 0.5373                 0.4598

                     46                     47                     48
                      A                      A                      A
 Frequencies --   1105.4421              1171.2640              1227.5264
 Red. masses --      1.5772                 2.1828                 2.2517
 Frc consts  --      1.1356                 1.7643                 1.9990
 IR Inten    --      1.8992                31.5551                42.5494

                     49                     50                     51
                      A                      A                      A
 Frequencies --   1231.5891              1237.2362              1256.2289
 Red. masses --      3.2794                 2.3022                 3.0113
 Frc consts  --      2.9307                 2.0763                 2.7999
 IR Inten    --     22.1206                73.4926                22.8462

                     52                     53                     54
                      A                      A                      A
 Frequencies --   1262.0635              1266.8940              1281.7423
 Red. masses --      3.0321                 2.9837                 3.0595
 Frc consts  --      2.8455                 2.8216                 2.9614
 IR Inten    --      3.4906                34.8869                 1.8549

                     55                     56                     57
                      A                      A                      A
 Frequencies --   1308.8312              1350.1154              1386.1396
 Red. masses --      2.0503                 1.6559                 1.2495
 Frc consts  --      2.0694                 1.7784                 1.4145
 IR Inten    --     11.1559                27.5546                 1.5554

                     58                     59                     60
                      A                      A                      A
 Frequencies --   1387.2362              1395.0042              1401.6375
 Red. masses --      1.2816                 1.2633                 1.2648
 Frc consts  --      1.4531                 1.4485                 1.4640
 IR Inten    --     25.8418                27.7587                29.6636

                     61                     62                     63
                      A                      A                      A
 Frequencies --   1405.5134              1415.1551              1428.0196
 Red. masses --      1.2341                 1.2376                 1.2344
 Frc consts  --      1.4363                 1.4602                 1.4831
 IR Inten    --      4.8689                13.4480                15.6439

                     64                     65                     66
                      A                      A                      A
 Frequencies --   1469.3618              1478.0428              1481.5002
 Red. masses --      1.0507                 1.0521                 1.0585
 Frc consts  --      1.3366                 1.3542                 1.3688
 IR Inten    --      2.6271                 4.5523                 9.8659

                     67                     68                     69
                      A                      A                      A
 Frequencies --   1483.7119              1485.7076              1487.2486
 Red. masses --      1.0565                 1.0708                 1.0667
 Frc consts  --      1.3704                 1.3926                 1.3901
 IR Inten    --      3.4388                 3.7746                 9.1044

                     70                     71                     72
                      A                      A                      A
 Frequencies --   1487.7854              1489.9976              1492.8057
 Red. masses --      1.0666                 1.0769                 1.0641
 Frc consts  --      1.3911                 1.4086                 1.3971
 IR Inten    --      6.1494                17.2201                12.8515

                     73                     74                     75
                      A                      A                      A
 Frequencies --   1495.6904              1501.5466              1505.0583
 Red. masses --      1.0811                 1.0839                 1.1083
 Frc consts  --      1.4249                 1.4399                 1.4791
 IR Inten    --      6.2408                 3.6133                 8.3373

                     76                     77                     78
                      A                      A                      A
 Frequencies --   1509.7410              1513.5278              1520.5070
 Red. masses --      1.0971                 1.3014                 2.1607
 Frc consts  --      1.4733                 1.7565                 2.9432
 IR Inten    --     24.7204                66.4398                17.4925

                     79                     80                     81
                      A                      A                      A
 Frequencies --   1534.5912              3058.6276              3064.4037
 Red. masses --      1.0686                 1.0350                 1.0360
 Frc consts  --      1.4826                 5.7050                 5.7320
 IR Inten    --     13.5485                47.6096                46.7791

                     82                     83                     84
                      A                      A                      A
 Frequencies --   3074.5489              3077.7704              3079.9730
 Red. masses --      1.0360                 1.0366                 1.0472
 Frc consts  --      5.7698                 5.7853                 5.8528
 IR Inten    --     38.9660                22.8897                 8.7310

                     85                     86                     87
                      A                      A                      A
 Frequencies --   3080.9469              3087.0813              3093.1881
 Red. masses --      1.0410                 1.0492                 1.0387
 Frc consts  --      5.8217                 5.8911                 5.8551
 IR Inten    --     46.0589                47.2170                36.6206

                     88                     89                     90
                      A                      A                      A
 Frequencies --   3132.3713              3133.3119              3139.8927
 Red. masses --      1.1020                 1.1041                 1.1010
 Frc consts  --      6.3706                 6.3865                 6.3954
 IR Inten    --     29.9317                34.7675                35.9691

                     91                     92                     93
                      A                      A                      A
 Frequencies --   3145.1191              3147.4174              3149.1715
 Red. masses --      1.1021                 1.1025                 1.1018
 Frc consts  --      6.4233                 6.4347                 6.4376
 IR Inten    --     48.1043                22.8370                16.7322

                     94                     95                     96
                      A                      A                      A
 Frequencies --   3151.1363              3154.7959              3157.4420
 Red. masses --      1.1023                 1.1017                 1.1007
 Frc consts  --      6.4491                 6.4606                 6.4655
 IR Inten    --     83.7442                32.0064                80.9446

                     97                     98                     99
                      A                      A                      A
 Frequencies --   3162.4071              3166.3476              3173.3571
 Red. masses --      1.1000                 1.1030                 1.1020
 Frc consts  --      6.4813                 6.5154                 6.5384
 IR Inten    --     33.3321                21.1691                31.3760

                    100                    101                    102
                      A                      A                      A
 Frequencies --   3186.9849              3192.1239              3196.2463
 Red. masses --      1.1024                 1.0997                 1.0986
 Frc consts  --      6.5970                 6.6023                 6.6123
 IR Inten    --     30.3274                14.2518                39.1263

 - Thermochemistry -
 -------------------
 Temperature   298.150 Kelvin.  Pressure   1.00000 Atm.
 Atom     1 has atomic number  6 and mass  12.00000

 Molecular mass:   181.18305 amu.
 Principal axes and moments of inertia in atomic units:
                           1         2         3
     Eigenvalues --  1621.377452769.829453233.46487
           X            1.00000   0.00282  -0.00100
           Y           -0.00282   0.99999  -0.00202
           Z            0.00099   0.00203   1.00000
 This molecule is an asymmetric top.
 Rotational symmetry number  1.
 Warning -- assumption of classical behavior for rotation
           may cause significant error
 Rotational temperatures (Kelvin)      0.05342     0.03127     0.02679
 Rotational constants (GHZ):           1.11309     0.65157     0.55814
 Zero-point vibrational energy     869688.8 (Joules/Mol)
                                  207.86062 (Kcal/Mol)
 Warning -- explicit consideration of  26 degrees of freedom as
           vibrations may cause significant error
 Vibrational temperatures:     82.22   123.86   145.68   280.80   282.98
          (Kelvin)            317.99   330.43   365.69   370.97   379.97
                              390.61   411.84   420.50   452.05   459.19
                              495.92   507.15   543.85   545.32   579.46
                              597.76   620.92   727.78   780.40   821.07
                              834.15   925.24  1013.72  1178.80  1222.94
                             1258.04  1318.29  1339.74  1355.24  1362.36
                             1366.83  1385.80  1390.84  1418.58  1433.35
                             1463.27  1476.29  1485.50  1514.81  1545.77
                             1590.48  1685.19  1766.13  1771.98  1780.10
                             1807.43  1815.83  1822.78  1844.14  1883.11
                             1942.51  1994.34  1995.92  2007.10  2016.64
                             2022.22  2036.09  2054.60  2114.08  2126.57
                             2131.55  2134.73  2137.60  2139.82  2140.59
                             2143.77  2147.81  2151.96  2160.39  2165.44
                             2172.18  2177.63  2187.67  2207.93  4400.68
                             4408.99  4423.58  4428.22  4431.39  4432.79
                             4441.62  4450.40  4506.78  4508.13  4517.60
                             4525.12  4528.43  4530.95  4533.78  4539.04
                             4542.85  4549.99  4555.66  4565.75  4585.35
                             4592.75  4598.68

 Zero-point correction=                           0.331247 (Hartree/Particle)
 Thermal correction to Energy=                    0.346440
 Thermal correction to Enthalpy=                  0.347384
 Thermal correction to Gibbs Free Energy=         0.291644
 Sum of electronic and zero-point Energies=           -525.359101
 Sum of electronic and thermal Energies=              -525.343908
 Sum of electronic and thermal Enthalpies=            -525.342964
 Sum of electronic and thermal Free Energies=         -525.398704

                     E (Thermal)             CV                S
                      KCal/Mol        Cal/Mol-Kelvin    Cal/Mol-Kelvin
 Total                  217.394             60.805            117.315
 Electronic               0.000              0.000              0.000
 Translational            0.889              2.981             41.490
 Rotational               0.889              2.981             31.052
 Vibrational            215.617             54.843             44.774
 Vibration     1          0.596              1.975              4.553
 Vibration     2          0.601              1.959              3.747
 Vibration     3          0.604              1.948              3.430
 Vibration     4          0.636              1.847              2.178
 Vibration     5          0.636              1.845              2.164
 Vibration     6          0.648              1.809              1.951
 Vibration     7          0.652              1.796              1.882
 Vibration     8          0.665              1.756              1.702
 Vibration     9          0.667              1.750              1.676
 Vibration    10          0.671              1.739              1.635
 Vibration    11          0.675              1.726              1.587
 Vibration    12          0.684              1.699              1.496
 Vibration    13          0.688              1.688              1.461
 Vibration    14          0.702              1.647              1.340
 Vibration    15          0.705              1.637              1.314
 Vibration    16          0.723              1.586              1.190
 Vibration    17          0.729              1.570              1.155
 Vibration    18          0.748              1.517              1.047
 Vibration    19          0.749              1.515              1.043
 Vibration    20          0.768              1.464              0.953
 Vibration    21          0.779              1.437              0.908
 Vibration    22          0.793              1.401              0.854
 Vibration    23          0.861              1.237              0.644
 Vibration    24          0.898              1.156              0.560
 Vibration    25          0.927              1.095              0.503
 Vibration    26          0.936              1.075              0.486

 Optimization completed.
    -- Stationary point found.
 Normal termination of Gaussian 09 at Mon Jun 21 05:28:28 2021.
