 Gaussian 09, Revision D.01,
 Gaussian 09:  ES64L-G09RevD.01 24-Apr-2013

 ----------------------------------------------------------
 #p opt freq n12sx/6-311+g(d,p) scrf=(iefpcm,solvent=water)
 ----------------------------------------------------------

 -----
 TITLE
 -----
 Symbolic Z-matrix:
 Charge =  0 Multiplicity = 1

 SCF Done:  E(RN12SX) =  -938.929713751     A.U. after   17 cycles
 SCF Done:  E(RN12SX) =  -938.975786403     A.U. after   16 cycles
 SCF Done:  E(RN12SX) =  -938.989810737     A.U. after   15 cycles
 SCF Done:  E(RN12SX) =  -938.993122139     A.U. after   16 cycles
 SCF Done:  E(RN12SX) =  -938.993916914     A.U. after   15 cycles
 SCF Done:  E(RN12SX) =  -938.995940349     A.U. after   14 cycles
 SCF Done:  E(RN12SX) =  -938.996802662     A.U. after   17 cycles
 SCF Done:  E(RN12SX) =  -938.998447124     A.U. after   15 cycles
 SCF Done:  E(RN12SX) =  -938.998847467     A.U. after   13 cycles
 SCF Done:  E(RN12SX) =  -938.998960682     A.U. after   13 cycles
 SCF Done:  E(RN12SX) =  -938.998997414     A.U. after   13 cycles
 SCF Done:  E(RN12SX) =  -938.999015069     A.U. after   12 cycles
 SCF Done:  E(RN12SX) =  -938.999034479     A.U. after   12 cycles
 SCF Done:  E(RN12SX) =  -938.999038403     A.U. after   11 cycles
 SCF Done:  E(RN12SX) =  -938.999039133     A.U. after   10 cycles
 SCF Done:  E(RN12SX) =  -938.999039562     A.U. after   10 cycles
 Optimization completed.
    -- Stationary point found.
 Normal termination of Gaussian 09 at Mon Nov 15 01:33:31 2021.

 ----------------------------------------------------------------------
 #P Geom=AllCheck Guess=TCheck SCRF=Check GenChk RN12SX/6-311+G(d,p) Fr
 eq
 ----------------------------------------------------------------------

 Structure from the checkpoint file:  "NHC33.chk"
 -----
 TITLE
 -----
 Charge =  0 Multiplicity = 1

                         Standard orientation:
 ---------------------------------------------------------------------
 Center     Atomic      Atomic             Coordinates (Angstroms)
 Number     Number       Type             X           Y           Z
 ---------------------------------------------------------------------
      1          8           0       -0.986098    0.802651   -0.020764
      2          6           0        0.286465    0.505641   -0.034631
      3          7           0        0.404067   -0.820733   -0.015074
      4          6           0       -0.849404   -1.469722   -0.009268
      5          6           0       -1.694941   -0.399402   -0.009802
      6          6           0       -3.138418   -0.284589   -0.003597
      7          6           0       -3.923874   -1.441843    0.008977
      8          6           0       -5.303944   -1.355029    0.013032
      9          6           0       -5.931655   -0.114786    0.004864
     10          6           0       -5.160330    1.038295   -0.007202
     11          6           0       -3.776796    0.958336   -0.011602
     12          6           0        1.266084    1.570082   -0.083818
     13          6           0        2.534180    1.390596   -0.642540
     14          6           0        3.422641    2.449715   -0.692282
     15          6           0        3.064054    3.691983   -0.187860
     16          6           0        1.802444    3.877702    0.361158
     17          6           0        0.904892    2.827760    0.410485
     18          1           0       -3.435968   -2.404274    0.015783
     19          1           0       -5.894588   -2.259300    0.022911
     20          1           0       -7.009340   -0.049722    0.007979
     21          1           0       -5.636740    2.007588   -0.013889
     22          1           0       -3.187796    1.862229   -0.022220
     23          1           0        2.820366    0.436370   -1.052811
     24          1           0        4.397325    2.304685   -1.132467
     25          1           0        3.763473    4.513327   -0.226537
     26          1           0        1.517451    4.842309    0.752484
     27          1           0       -0.074952    2.971749    0.837486
     28          6           0        1.632199   -1.544777    0.068426
     29          6           0        2.445305   -1.401301    1.181309
     30          6           0        1.968504   -2.413777   -0.956368
     31          6           0        3.622825   -2.129052    1.257380
     32          6           0        3.147219   -3.137359   -0.871887
     33          6           0        3.976312   -2.994472    0.232123
     34          1           0        2.158187   -0.731973    1.977873
     35          1           0        1.310808   -2.516559   -1.805180
     36          1           0        4.259495   -2.022952    2.122470
     37          1           0        3.416823   -3.812920   -1.669383
     38          1           0        4.893200   -3.560631    0.295750
 ---------------------------------------------------------------------

 SCF Done:  E(RN12SX) =  -938.999039562     A.U. after    1 cycles

 The electronic state is 1-A.
 Alpha  occ. eigenvalues --  -19.26912 -14.45440 -10.35927 -10.28471 -10.27896
 Alpha  occ. eigenvalues --  -10.26775 -10.24726 -10.24716 -10.24648 -10.24232
 Alpha  occ. eigenvalues --  -10.24172 -10.24098 -10.23959 -10.23947 -10.23872
 Alpha  occ. eigenvalues --  -10.23849 -10.23689 -10.22907 -10.22857 -10.22844
 Alpha  occ. eigenvalues --  -10.22758 -10.22646 -10.21699  -1.16452  -0.99078
 Alpha  occ. eigenvalues --   -0.89107  -0.87768  -0.87352  -0.82149  -0.78029
 Alpha  occ. eigenvalues --   -0.77715  -0.77007  -0.76803  -0.75488  -0.73246
 Alpha  occ. eigenvalues --   -0.67524  -0.65924  -0.64288  -0.62754  -0.61762
 Alpha  occ. eigenvalues --   -0.61461  -0.59457  -0.58213  -0.56351  -0.53381
 Alpha  occ. eigenvalues --   -0.52259  -0.51453  -0.49909  -0.48472  -0.47503
 Alpha  occ. eigenvalues --   -0.46910  -0.46270  -0.45906  -0.45289  -0.44111
 Alpha  occ. eigenvalues --   -0.43845  -0.43640  -0.43187  -0.42242  -0.41598
 Alpha  occ. eigenvalues --   -0.39419  -0.39042  -0.37972  -0.37156  -0.36864
 Alpha  occ. eigenvalues --   -0.36757  -0.35774  -0.35394  -0.34431  -0.34272
 Alpha  occ. eigenvalues --   -0.30350  -0.27741  -0.27160  -0.26709  -0.26122
 Alpha  occ. eigenvalues --   -0.25783  -0.22379  -0.20873
 Alpha virt. eigenvalues --   -0.08668  -0.04392  -0.04070  -0.03317  -0.02857
 Alpha virt. eigenvalues --   -0.02433  -0.01151  -0.00190   0.00151   0.00641
 Alpha virt. eigenvalues --    0.01128   0.01487   0.01723   0.02002   0.02725

 Mulliken charges:
               1
     1  O    0.146700
     2  C    0.107314
     3  N    0.517708
     4  C   -0.943747
     5  C    0.580991
     6  C    0.884877
     7  C   -0.573087
     8  C   -0.704352
     9  C   -0.224054
    10  C   -0.572981
    11  C    0.156141
    12  C    0.472227
    13  C    0.152145
    14  C   -0.344630
    15  C   -0.153345
    16  C   -0.310086
    17  C   -0.213495
    18  H    0.162621
    19  H    0.159394
    20  H    0.157807
    21  H    0.158043
    22  H    0.164236
    23  H    0.194185
    24  H    0.166825
    25  H    0.169089
    26  H    0.167589
    27  H    0.175960
    28  C   -1.441208
    29  C    0.064893
    30  C    0.928707
    31  C   -0.524473
    32  C   -0.436737
    33  C   -0.072271
    34  H    0.164850
    35  H    0.163604
    36  H    0.166371
    37  H    0.166698
    38  H    0.165492
 Sum of Mulliken charges =   0.00000

 Dipole moment (field-independent basis, Debye):
    X=              6.2563    Y=              4.7844    Z=             -0.0211  Tot=              7.8761
 Quadrupole moment (field-independent basis, Debye-Ang):
   XX=           -107.3556   YY=           -120.7588   ZZ=           -132.5114
   XY=             -5.9551   XZ=             -1.0538   YZ=              5.3299

  Exact polarizability: 521.336  27.139 401.799  -6.319  24.091 227.901
 Approx polarizability: 585.827  25.341 476.366  -8.715  36.558 280.339

                      1                      2                      3
                      A                      A                      A
 Frequencies --     29.8028                32.6380                44.2233
 Red. masses --      3.7376                 3.7819                 4.9995
 Frc consts  --      0.0020                 0.0024                 0.0058
 IR Inten    --      0.1094                 0.0336                 1.6529

                      4                      5                      6
                      A                      A                      A
 Frequencies --     50.1953                63.4962                68.9387
 Red. masses --      4.9550                 4.7665                 4.6483
 Frc consts  --      0.0074                 0.0113                 0.0130
 IR Inten    --      1.6765                 0.5641                 0.7747

                      7                      8                      9
                      A                      A                      A
 Frequencies --    118.4111               129.5400               172.2717
 Red. masses --      6.3159                 5.5297                 4.9294
 Frc consts  --      0.0522                 0.0547                 0.0862
 IR Inten    --      6.0744                 0.0865                 2.6914

                     10                     11                     12
                      A                      A                      A
 Frequencies --    243.7473               245.8248               256.8241
 Red. masses --      6.3721                 5.2657                 4.8727
 Frc consts  --      0.2231                 0.1875                 0.1894
 IR Inten    --      0.7687                 1.0212                 2.3501

                     13                     14                     15
                      A                      A                      A
 Frequencies --    272.7787               304.5757               390.3542
 Red. masses --      5.5989                 5.4937                 5.6309
 Frc consts  --      0.2455                 0.3003                 0.5055
 IR Inten    --      3.4078                 6.0361                 0.8717

                     16                     17                     18
                      A                      A                      A
 Frequencies --    412.9838               413.7242               419.9936
 Red. masses --      2.9172                 2.9131                 2.8932
 Frc consts  --      0.2931                 0.2938                 0.3007
 IR Inten    --      1.0759                 0.0392                 0.0227

                     19                     20                     21
                      A                      A                      A
 Frequencies --    447.3236               463.5820               493.7895
 Red. masses --      5.6206                 6.7603                 3.7271
 Frc consts  --      0.6626                 0.8560                 0.5354
 IR Inten    --      1.9443                 6.9895                13.6681

                     22                     23                     24
                      A                      A                      A
 Frequencies --    523.5568               545.1796               624.2206
 Red. masses --      4.1417                 4.3772                 5.3608
 Frc consts  --      0.6689                 0.7665                 1.2307
 IR Inten    --      9.7769                 2.2926                17.8580

                     25                     26                     27
                      A                      A                      A
 Frequencies --    629.2148               633.2159               635.1003
 Red. masses --      6.4232                 6.4219                 6.3477
 Frc consts  --      1.4983                 1.5171                 1.5085
 IR Inten    --      0.0377                 0.2800                 6.3457

                     28                     29                     30
                      A                      A                      A
 Frequencies --    682.8046               687.8218               694.9542
 Red. masses --      5.7162                 6.6024                 6.6761
 Frc consts  --      1.5702                 1.8404                 1.8997
 IR Inten    --     48.7844                 3.2746                18.5852

                     31                     32                     33
                      A                      A                      A
 Frequencies --    707.5292               712.9608               715.4922
 Red. masses --      1.8637                 1.8934                 1.7722
 Frc consts  --      0.5497                 0.5670                 0.5345
 IR Inten    --     70.3204                48.1830                83.6945

                     34                     35                     36
                      A                      A                      A
 Frequencies --    737.3094               757.1079               786.9238
 Red. masses --      3.4932                 5.5391                 1.9700
 Frc consts  --      1.1189                 1.8707                 0.7188
 IR Inten    --     41.6403                50.7889                33.4865

                     37                     38                     39
                      A                      A                      A
 Frequencies --    796.4743               802.0133               862.6011
 Red. masses --      2.0210                 2.6592                 1.2489
 Frc consts  --      0.7554                 1.0078                 0.5475
 IR Inten    --     87.1137                34.1837                 0.1188

                     40                     41                     42
                      A                      A                      A
 Frequencies --    867.0357               867.2069               936.1356
 Red. masses --      1.2536                 1.2506                10.0459
 Frc consts  --      0.5553                 0.5541                 5.1870
 IR Inten    --      0.0289                 0.7686                16.9335

                     43                     44                     45
                      A                      A                      A
 Frequencies --    947.2931               951.4503               962.9251
 Red. masses --      1.4281                 1.4729                 1.4080
 Frc consts  --      0.7550                 0.7856                 0.7692
 IR Inten    --      6.0565                13.4029                 4.5435

                     46                     47                     48
                      A                      A                      A
 Frequencies --    990.8925              1010.1040              1010.5567
 Red. masses --      8.0349                 1.3720                 1.3643
 Frc consts  --      4.6482                 0.8247                 0.8209
 IR Inten    --     45.0481                 0.2099                 0.0181

                     49                     50                     51
                      A                      A                      A
 Frequencies --   1015.3900              1018.0574              1020.1835
 Red. masses --      1.3924                 6.1570                 5.7405
 Frc consts  --      0.8458                 3.7598                 3.5201
 IR Inten    --      1.4735                 0.8752                 0.8190

                     52                     53                     54
                      A                      A                      A
 Frequencies --   1023.7037              1024.7665              1029.1509
 Red. masses --      1.2842                 6.3206                 7.4928
 Frc consts  --      0.7929                 3.9107                 4.6758
 IR Inten    --      0.2458                 2.5008                 2.9139

                     55                     56                     57
                      A                      A                      A
 Frequencies --   1031.8978              1033.7095              1054.9652
 Red. masses --      1.3102                 1.3068                 2.5587
 Frc consts  --      0.8220                 0.8227                 1.6778
 IR Inten    --      0.2495                 0.0804                33.4316

                     58                     59                     60
                      A                      A                      A
 Frequencies --   1063.0138              1066.6365              1096.0669
 Red. masses --      2.1275                 1.9327                 3.1659
 Frc consts  --      1.4165                 1.2955                 2.2409
 IR Inten    --      3.7691                13.1415                23.8406

                     61                     62                     63
                      A                      A                      A
 Frequencies --   1111.5030              1114.2531              1124.2558
 Red. masses --      1.5185                 1.6700                 1.6131
 Frc consts  --      1.1053                 1.2216                 1.2013
 IR Inten    --      8.3080                 8.4779                15.3980

                     64                     65                     66
                      A                      A                      A
 Frequencies --   1178.6093              1183.0033              1187.2221
 Red. masses --      3.3338                 1.1248                 1.1278
 Frc consts  --      2.7286                 0.9274                 0.9366
 IR Inten    --     18.4476                 1.0732                 1.1112

                     67                     68                     69
                      A                      A                      A
 Frequencies --   1190.5895              1199.9375              1203.3001
 Red. masses --      1.0805                 1.1297                 1.1203
 Frc consts  --      0.9024                 0.9583                 0.9557
 IR Inten    --      0.1913                 1.3715                 0.1245

                     70                     71                     72
                      A                      A                      A
 Frequencies --   1216.3190              1259.6425              1319.8205
 Red. masses --      1.1278                 4.8248                 3.5060
 Frc consts  --      0.9830                 4.5104                 3.5983
 IR Inten    --      4.6641                51.2643                20.9293

                     73                     74                     75
                      A                      A                      A
 Frequencies --   1348.1526              1349.1044              1353.3283
 Red. masses --      1.6878                 1.9173                 2.3883
 Frc consts  --      1.8074                 2.0561                 2.5772
 IR Inten    --      0.8716                 5.2451                 0.2181

                     76                     77                     78
                      A                      A                      A
 Frequencies --   1370.3639              1373.1534              1379.0225
 Red. masses --      3.9156                 3.1211                 2.5213
 Frc consts  --      4.3324                 3.4674                 2.8250
 IR Inten    --      2.7416                 1.0082                 1.3944

                     79                     80                     81
                      A                      A                      A
 Frequencies --   1450.9131              1483.6110              1491.7242
 Red. masses --      3.9004                 2.3975                 2.4757
 Frc consts  --      4.8378                 3.1092                 3.2459
 IR Inten    --     10.1997                41.6954                13.2363

                     82                     83                     84
                      A                      A                      A
 Frequencies --   1499.9109              1515.7940              1519.1772
 Red. masses --      2.4455                 2.9315                 2.5419
 Frc consts  --      3.2415                 3.9684                 3.4564
 IR Inten    --     10.6766                92.3357               109.8015

                     85                     86                     87
                      A                      A                      A
 Frequencies --   1547.0632              1574.6554              1584.6868
 Red. masses --      2.7208                 5.2553                 6.1865
 Frc consts  --      3.8368                 7.6775                 9.1533
 IR Inten    --     81.2825                49.0328                28.5251

                     88                     89                     90
                      A                      A                      A
 Frequencies --   1640.6259              1643.6780              1659.3338
 Red. masses --      6.0789                 5.9221                 6.5015
 Frc consts  --      9.6403                 9.4266                10.5471
 IR Inten    --      5.0367                 1.7125                 5.2027

                     91                     92                     93
                      A                      A                      A
 Frequencies --   1666.0553              1667.8890              1670.8252
 Red. masses --      5.9098                 5.9994                 6.0153
 Frc consts  --      9.6649                 9.8332                 9.8939
 IR Inten    --      9.4788                46.3460                15.1721

                     94                     95                     96
                      A                      A                      A
 Frequencies --   3214.9066              3223.1043              3225.0203
 Red. masses --      1.0864                 1.0891                 1.0867
 Frc consts  --      6.6156                 6.6662                 6.6595
 IR Inten    --      6.1070                10.9471                 0.0509

                     97                     98                     99
                      A                      A                      A
 Frequencies --   3225.2647              3233.6714              3234.3826
 Red. masses --      1.0871                 1.0899                 1.0895
 Frc consts  --      6.6629                 6.7149                 6.7150
 IR Inten    --      1.8018                 6.6739                 5.6571

                    100                    101                    102
                      A                      A                      A
 Frequencies --   3235.4916              3241.0662              3242.8306
 Red. masses --      1.0928                 1.0932                 1.0942
 Frc consts  --      6.7405                 6.7657                 6.7795
 IR Inten    --     21.1678                17.9667                16.1752

                    103                    104                    105
                      A                      A                      A
 Frequencies --   3243.1987              3246.2302              3248.8285
 Red. masses --      1.0938                 1.0974                 1.0967
 Frc consts  --      6.7788                 6.8136                 6.8201
 IR Inten    --     11.3568                11.0248                 8.4733

                    106                    107                    108
                      A                      A                      A
 Frequencies --   3251.5812              3253.9890              3263.2311
 Red. masses --      1.0977                 1.0980                 1.0942
 Frc consts  --      6.8381                 6.8497                 6.8650
 IR Inten    --     12.4283                 3.1545                 3.1390

 - Thermochemistry -
 -------------------
 Temperature   298.150 Kelvin.  Pressure   1.00000 Atm.
 Atom     1 has atomic number  8 and mass  15.99491

 Molecular mass:   297.11536 amu.
 Principal axes and moments of inertia in atomic units:
                           1         2         3
     Eigenvalues --  4624.70725********************
           X            1.00000  -0.00225  -0.00041
           Y            0.00225   0.99998   0.00533
           Z            0.00040  -0.00533   0.99999
 This molecule is an asymmetric top.
 Rotational symmetry number  1.
 Warning -- assumption of classical behavior for rotation
           may cause significant error
 Rotational temperatures (Kelvin)      0.01873     0.00819     0.00595
 Rotational constants (GHZ):           0.39024     0.17055     0.12390
 Zero-point vibrational energy     797257.0 (Joules/Mol)
                                  190.54899 (Kcal/Mol)
 Warning -- explicit consideration of  23 degrees of freedom as
           vibrations may cause significant error
 Vibrational temperatures:     42.88    46.96    63.63    72.22    91.36
          (Kelvin)             99.19   170.37   186.38   247.86   350.70
                              353.69   369.51   392.47   438.22   561.63
                              594.19   595.26   604.28   643.60   666.99
                              710.45   753.28   784.39   898.11   905.30
                              911.06   913.77   982.40   989.62   999.88
                             1017.98  1025.79  1029.43  1060.82  1089.31
                             1132.21  1145.95  1153.92  1241.09  1247.47
                             1247.72  1346.89  1362.94  1368.92  1385.43
                             1425.67  1453.31  1453.96  1460.92  1464.76
                             1467.81  1472.88  1474.41  1480.72  1484.67
                             1487.28  1517.86  1529.44  1534.65  1576.99
                             1599.20  1603.16  1617.55  1695.75  1702.08
                             1708.15  1712.99  1726.44  1731.28  1750.01
                             1812.34  1898.92  1939.69  1941.06  1947.14
                             1971.65  1975.66  1984.10  2087.54  2134.58
                             2146.26  2158.03  2180.89  2185.75  2225.88
                             2265.58  2280.01  2360.49  2364.88  2387.41
                             2397.08  2399.72  2403.94  4625.53  4637.32
                             4640.08  4640.43  4652.53  4653.55  4655.14
                             4663.17  4665.70  4666.23  4670.60  4674.33
                             4678.29  4681.76  4695.06

 Zero-point correction=                           0.303659 (Hartree/Particle)
 Thermal correction to Energy=                    0.321052
 Thermal correction to Enthalpy=                  0.321996
 Thermal correction to Gibbs Free Energy=         0.255893
 Sum of electronic and zero-point Energies=           -938.695380
 Sum of electronic and thermal Energies=              -938.677988
 Sum of electronic and thermal Enthalpies=            -938.677043
 Sum of electronic and thermal Free Energies=         -938.743146

                     E (Thermal)             CV                S
                      KCal/Mol        Cal/Mol-Kelvin    Cal/Mol-Kelvin
 Total                  201.463             69.389            139.125
 Electronic               0.000              0.000              0.000
 Translational            0.889              2.981             42.964
 Rotational               0.889              2.981             34.921
 Vibrational            199.686             63.427             61.241
 Vibration     1          0.594              1.984              5.843
 Vibration     2          0.594              1.983              5.662
 Vibration     3          0.595              1.980              5.060
 Vibration     4          0.595              1.978              4.810
 Vibration     5          0.597              1.972              4.345
 Vibration     6          0.598              1.969              4.183
 Vibration     7          0.609              1.934              3.126
 Vibration     8          0.612              1.924              2.953
 Vibration     9          0.626              1.877              2.411
 Vibration    10          0.659              1.773              1.775
 Vibration    11          0.660              1.770              1.760
 Vibration    12          0.666              1.751              1.683
 Vibration    13          0.676              1.724              1.579
 Vibration    14          0.695              1.665              1.392
 Vibration    15          0.758              1.491              0.999
 Vibration    16          0.777              1.442              0.916
 Vibration    17          0.777              1.440              0.914
 Vibration    18          0.783              1.427              0.892
 Vibration    19          0.806              1.367              0.804
 Vibration    20          0.821              1.331              0.756
 Vibration    21          0.849              1.264              0.674
 Vibration    22          0.879              1.198              0.602
 Vibration    23          0.900              1.150              0.554

 Optimization completed.
    -- Stationary point found.
 Normal termination of Gaussian 09 at Mon Nov 15 07:03:03 2021.
