 Gaussian 09, Revision D.01,
 Gaussian 09:  ES64L-G09RevD.01 24-Apr-2013

 ----------------------------------------------------------
 #p opt freq n12sx/6-311+g(d,p) scrf=(iefpcm,solvent=water)
 ----------------------------------------------------------

 -----
 TITLE
 -----
 Symbolic Z-matrix:
 Charge =  0 Multiplicity = 1

 SCF Done:  E(RN12SX) =  -541.748215015     A.U. after   13 cycles
 SCF Done:  E(RN12SX) =  -541.749589451     A.U. after   11 cycles
 SCF Done:  E(RN12SX) =  -541.749765845     A.U. after   10 cycles
 SCF Done:  E(RN12SX) =  -541.749787284     A.U. after    9 cycles
 SCF Done:  E(RN12SX) =  -541.749790785     A.U. after    8 cycles
 SCF Done:  E(RN12SX) =  -541.749793740     A.U. after    8 cycles
 SCF Done:  E(RN12SX) =  -541.749797604     A.U. after    9 cycles
 SCF Done:  E(RN12SX) =  -541.749800267     A.U. after    9 cycles
 SCF Done:  E(RN12SX) =  -541.749801625     A.U. after    8 cycles
 SCF Done:  E(RN12SX) =  -541.749802212     A.U. after    8 cycles
 SCF Done:  E(RN12SX) =  -541.749802785     A.U. after    8 cycles
 SCF Done:  E(RN12SX) =  -541.749803363     A.U. after    8 cycles
 SCF Done:  E(RN12SX) =  -541.749803744     A.U. after    8 cycles
 SCF Done:  E(RN12SX) =  -541.749803835     A.U. after    7 cycles
 Optimization completed.
    -- Stationary point found.
 Normal termination of Gaussian 09 at Sun Jun 20 20:23:00 2021.

 ----------------------------------------------------------------------
 #P Geom=AllCheck Guess=TCheck SCRF=Check GenChk RN12SX/6-311+G(d,p) Fr
 eq
 ----------------------------------------------------------------------

 Structure from the checkpoint file:  "NHC16.chk"
 -----
 TITLE
 -----
 Charge =  0 Multiplicity = 1

                         Standard orientation:
 ---------------------------------------------------------------------
 Center     Atomic      Atomic             Coordinates (Angstroms)
 Number     Number       Type             X           Y           Z
 ---------------------------------------------------------------------
      1          6           0        0.751431   -1.609534    0.106808
      2          6           0       -0.751466   -1.609553   -0.107010
      3          7           0       -1.077749   -0.184153    0.043283
      4          6           0        0.000033    0.610125   -0.000866
      5          7           0        1.077805   -0.184252   -0.044776
      6          6           0       -2.476283    0.266086    0.007255
      7          6           0       -2.546962    1.780575    0.134118
      8          6           0       -3.238241   -0.364154    1.175223
      9          6           0       -3.119465   -0.156659   -1.315940
     10          6           0        2.476311    0.266092   -0.007192
     11          6           0        3.116249   -0.151054    1.319336
     12          6           0        2.547379    1.780026   -0.140448
     13          6           0        3.240998   -0.369197   -1.170610
     14          1           0        1.017969   -1.957809    1.105337
     15          1           0        1.273754   -2.227785   -0.617222
     16          1           0       -1.017942   -1.958691   -1.105249
     17          1           0       -1.273926   -2.227180    0.617484
     18          1           0       -2.044995    2.271059   -0.694614
     19          1           0       -3.592912    2.082374    0.139003
     20          1           0       -2.080835    2.119972    1.055514
     21          1           0       -3.258611   -1.449937    1.108730
     22          1           0       -4.269657   -0.016893    1.176736
     23          1           0       -2.781510   -0.085207    2.123164
     24          1           0       -4.147881    0.196664   -1.360414
     25          1           0       -2.574996    0.267870   -2.157870
     26          1           0       -3.138212   -1.239020   -1.428250
     27          1           0        3.134063   -1.232918    1.436516
     28          1           0        4.144789    0.201843    1.364593
     29          1           0        2.570110    0.277548    2.158109
     30          1           0        2.082740    2.115480   -1.064063
     31          1           0        3.593373    2.081667   -0.145059
     32          1           0        2.044231    2.274183    0.685354
     33          1           0        3.261937   -1.454639   -1.098952
     34          1           0        2.786031   -0.094995   -2.120785
     35          1           0        4.272183   -0.021273   -1.171657
 ---------------------------------------------------------------------

 SCF Done:  E(RN12SX) =  -541.749803835     A.U. after    1 cycles

 The electronic state is 1-A.
 Alpha  occ. eigenvalues --  -14.37374 -14.37370 -10.26559 -10.26559 -10.24651
 Alpha  occ. eigenvalues --  -10.24624 -10.22884 -10.20241 -10.20240 -10.20231
 Alpha  occ. eigenvalues --  -10.20230 -10.19837 -10.19837  -0.99212  -0.90346
 Alpha  occ. eigenvalues --   -0.81996  -0.77077  -0.75113  -0.68941  -0.68876
 Alpha  occ. eigenvalues --   -0.68847  -0.68306  -0.62752  -0.61905  -0.54068
 Alpha  occ. eigenvalues --   -0.51511  -0.49258  -0.49123  -0.46144  -0.44597
 Alpha  occ. eigenvalues --   -0.44269  -0.43892  -0.43462  -0.41937  -0.40671
 Alpha  occ. eigenvalues --   -0.39620  -0.38291  -0.38029  -0.37165  -0.36441
 Alpha  occ. eigenvalues --   -0.35881  -0.35537  -0.34976  -0.34968  -0.34398
 Alpha  occ. eigenvalues --   -0.33106  -0.32882  -0.32162  -0.30672  -0.20859
 Alpha  occ. eigenvalues --   -0.20221
 Alpha virt. eigenvalues --   -0.00665   0.00297   0.00753   0.01020   0.02175
 Alpha virt. eigenvalues --    0.02357   0.02380   0.02464   0.03449   0.03962
 Alpha virt. eigenvalues --    0.04439   0.04997   0.05079   0.05826   0.06136

 Mulliken charges:
               1
     1  C   -0.420931
     2  C   -0.419994
     3  N    0.416100
     4  C   -0.329059
     5  N    0.415998
     6  C   -0.389052
     7  C   -0.524729
     8  C   -0.400117
     9  C   -0.409495
    10  C   -0.387014
    11  C   -0.409747
    12  C   -0.525038
    13  C   -0.400961
    14  H    0.187684
    15  H    0.191183
    16  H    0.187772
    17  H    0.191250
    18  H    0.171856
    19  H    0.168849
    20  H    0.168685
    21  H    0.159496
    22  H    0.170797
    23  H    0.169668
    24  H    0.172068
    25  H    0.170093
    26  H    0.161604
    27  H    0.161524
    28  H    0.172054
    29  H    0.170066
    30  H    0.168616
    31  H    0.168834
    32  H    0.171923
    33  H    0.159503
    34  H    0.169682
    35  H    0.170831
 Sum of Mulliken charges =   0.00000

 Dipole moment (field-independent basis, Debye):
    X=             -0.0010    Y=             -3.7973    Z=              0.0030  Tot=              3.7973
 Quadrupole moment (field-independent basis, Debye-Ang):
   XX=            -73.7535   YY=            -83.4338   ZZ=            -83.7293
   XY=              0.0003   XZ=              0.3120   YZ=              0.0031

  Exact polarizability: 214.723   0.008 190.751   1.036  -0.004 169.841
 Approx polarizability: 219.734   0.007 204.346   0.416  -0.006 185.743

                      1                      2                      3
                      A                      A                      A
 Frequencies --     15.2142                24.0149                97.2048
 Red. masses --      3.1024                 2.7378                 1.8596
 Frc consts  --      0.0004                 0.0009                 0.0104
 IR Inten    --      0.5815                 0.0028                 0.0068

                      4                      5                      6
                      A                      A                      A
 Frequencies --    119.9126               152.7200               158.1433
 Red. masses --      2.8848                 2.6929                 2.8612
 Frc consts  --      0.0244                 0.0370                 0.0422
 IR Inten    --     22.2836                 1.1278                 0.3231

                      7                      8                      9
                      A                      A                      A
 Frequencies --    236.3290               247.3097               268.9816
 Red. masses --      1.0837                 1.1381                 1.4599
 Frc consts  --      0.0357                 0.0410                 0.0622
 IR Inten    --      1.7555                 0.0378                 0.0000

                     10                     11                     12
                      A                      A                      A
 Frequencies --    271.2743               281.7527               284.0499
 Red. masses --      1.0832                 2.3658                 1.5201
 Frc consts  --      0.0470                 0.1107                 0.0723
 IR Inten    --      0.0179                 6.8049                 0.0751

                     13                     14                     15
                      A                      A                      A
 Frequencies --    308.1523               309.4470               345.3216
 Red. masses --      1.0867                 1.0736                 2.4376
 Frc consts  --      0.0608                 0.0606                 0.1713
 IR Inten    --      0.0288                 0.1127                 3.5730

                     16                     17                     18
                      A                      A                      A
 Frequencies --    350.3697               362.4782               364.1336
 Red. masses --      2.3662                 2.3154                 2.4641
 Frc consts  --      0.1711                 0.1792                 0.1925
 IR Inten    --      0.0998                 0.0414                 4.9495

                     19                     20                     21
                      A                      A                      A
 Frequencies --    400.1807               433.9895               469.8107
 Red. masses --      2.5216                 3.2694                 2.8241
 Frc consts  --      0.2379                 0.3628                 0.3673
 IR Inten    --      0.6743                 3.7002                 0.0023

                     22                     23                     24
                      A                      A                      A
 Frequencies --    485.8018               501.0959               513.7718
 Red. masses --      3.1964                 3.5274                 2.9501
 Frc consts  --      0.4445                 0.5218                 0.4588
 IR Inten    --      0.0817                 9.1673                 5.9249

                     25                     26                     27
                      A                      A                      A
 Frequencies --    573.0577               618.2388               788.1892
 Red. masses --      2.5622                 3.5830                 2.6087
 Frc consts  --      0.4957                 0.8069                 0.9549
 IR Inten    --      1.0714                29.5641                 9.5838

                     28                     29                     30
                      A                      A                      A
 Frequencies --    831.7495               862.9979               917.9945
 Red. masses --      2.7269                 1.6470                 5.3179
 Frc consts  --      1.1115                 0.7227                 2.6404
 IR Inten    --      0.4973                 2.2510                 7.2571

                     31                     32                     33
                      A                      A                      A
 Frequencies --    931.9689               932.1754               944.9906
 Red. masses --      1.6570                 1.6657                 1.9543
 Frc consts  --      0.8480                 0.8528                 1.0283
 IR Inten    --      0.0382                 1.1343                12.6292

                     34                     35                     36
                      A                      A                      A
 Frequencies --    948.7847               948.8649               966.3176
 Red. masses --      1.7123                 1.6718                 1.2039
 Frc consts  --      0.9081                 0.8868                 0.6623
 IR Inten    --      3.1697                 6.0023                 0.0085

                     37                     38                     39
                      A                      A                      A
 Frequencies --    966.4932              1038.9129              1041.3221
 Red. masses --      1.2081                 1.7707                 1.5682
 Frc consts  --      0.6649                 1.1260                 1.0019
 IR Inten    --      0.1131                 0.3475                 3.4648

                     40                     41                     42
                      A                      A                      A
 Frequencies --   1049.0383              1052.8313              1060.5067
 Red. masses --      1.4108                 1.4001                 1.8119
 Frc consts  --      0.9148                 0.9144                 1.2006
 IR Inten    --      0.0297                 3.2018                 0.3518

                     43                     44                     45
                      A                      A                      A
 Frequencies --   1103.4933              1115.9991              1175.7358
 Red. masses --      2.8264                 1.6541                 2.3855
 Frc consts  --      2.0278                 1.2138                 1.9429
 IR Inten    --      2.6835                 0.5778                 0.6349

                     46                     47                     48
                      A                      A                      A
 Frequencies --   1220.8564              1238.2570              1251.3498
 Red. masses --      1.1577                 3.3211                 2.3065
 Frc consts  --      1.0167                 3.0002                 2.1279
 IR Inten    --     11.4618                 0.2404                 1.4518

                     49                     50                     51
                      A                      A                      A
 Frequencies --   1252.8107              1255.9575              1264.0118
 Red. masses --      2.7352                 2.8495                 1.5467
 Frc consts  --      2.5294                 2.6483                 1.4560
 IR Inten    --    132.5766                91.8284                 2.4354

                     52                     53                     54
                      A                      A                      A
 Frequencies --   1278.8934              1318.8686              1327.6993
 Red. masses --      2.8796                 2.0547                 4.2702
 Frc consts  --      2.7749                 2.1058                 4.4351
 IR Inten    --    264.9804               151.0544                44.6490

                     55                     56                     57
                      A                      A                      A
 Frequencies --   1334.7613              1395.4730              1395.5953
 Red. masses --      1.5498                 1.2582                 1.2596
 Frc consts  --      1.6268                 1.4435                 1.4455
 IR Inten    --      0.4018                45.9075                 5.6283

                     58                     59                     60
                      A                      A                      A
 Frequencies --   1398.6258              1399.6648              1422.6351
 Red. masses --      1.2953                 1.2914                 1.2374
 Frc consts  --      1.4929                 1.4905                 1.4755
 IR Inten    --     35.9804                 3.0762                17.6932

                     61                     62                     63
                      A                      A                      A
 Frequencies --   1422.9748              1454.4332              1471.0190
 Red. masses --      1.2360                 2.7473                 2.5276
 Frc consts  --      1.4745                 3.4240                 3.2225
 IR Inten    --      3.0945                 7.6585               251.3111

                     64                     65                     66
                      A                      A                      A
 Frequencies --   1473.4821              1473.5728              1481.4645
 Red. masses --      1.0512                 1.0490                 1.0487
 Frc consts  --      1.3447                 1.3420                 1.3560
 IR Inten    --      5.0134                 0.6788                 1.8123

                     67                     68                     69
                      A                      A                      A
 Frequencies --   1481.4891              1482.2877              1484.3962
 Red. masses --      1.0463                 1.0593                 1.0926
 Frc consts  --      1.3530                 1.3713                 1.4184
 IR Inten    --      0.0303                 2.9063                 0.0142

                     70                     71                     72
                      A                      A                      A
 Frequencies --   1499.9916              1500.3360              1501.4318
 Red. masses --      1.0610                 1.0601                 1.0653
 Frc consts  --      1.4065                 1.4060                 1.4149
 IR Inten    --      8.4648                 3.2816                 5.7826

                     73                     74                     75
                      A                      A                      A
 Frequencies --   1501.7680              1512.5629              1515.7025
 Red. masses --      1.0664                 1.0749                 1.0911
 Frc consts  --      1.4171                 1.4489                 1.4768
 IR Inten    --     22.6514                 3.4375                 0.5632

                     76                     77                     78
                      A                      A                      A
 Frequencies --   1522.6766              1529.8256              3068.8547
 Red. masses --      1.1833                 1.1090                 1.0425
 Frc consts  --      1.6164                 1.5291                 5.7849
 IR Inten    --    118.0214                 0.0095                 2.0243

                     79                     80                     81
                      A                      A                      A
 Frequencies --   3069.2286              3072.5561              3072.8039
 Red. masses --      1.0395                 1.0413                 1.0419
 Frc consts  --      5.7693                 5.7921                 5.7964
 IR Inten    --     27.0699                57.4204                 2.6128

                     82                     83                     84
                      A                      A                      A
 Frequencies --   3075.7548              3075.9132              3081.7305
 Red. masses --      1.0551                 1.0522                 1.0383
 Frc consts  --      5.8812                 5.8654                 5.8099
 IR Inten    --     96.6186                67.8312                50.3485

                     85                     86                     87
                      A                      A                      A
 Frequencies --   3082.0723              3142.2454              3147.7952
 Red. masses --      1.0393                 1.0951                 1.1021
 Frc consts  --      5.8165                 6.3709                 6.4339
 IR Inten    --      3.0125                 8.9732                22.2248

                     88                     89                     90
                      A                      A                      A
 Frequencies --   3150.3031              3150.7900              3151.0496
 Red. masses --      1.1020                 1.1028                 1.1029
 Frc consts  --      6.4438                 6.4505                 6.4517
 IR Inten    --      1.2497                44.8889                18.1778

                     91                     92                     93
                      A                      A                      A
 Frequencies --   3152.0240              3152.2854              3152.7356
 Red. masses --      1.1024                 1.1022                 1.1025
 Frc consts  --      6.4533                 6.4532                 6.4565
 IR Inten    --     19.5565                46.6932                18.4047

                     94                     95                     96
                      A                      A                      A
 Frequencies --   3155.9438              3158.6192              3159.1757
 Red. masses --      1.1007                 1.1009                 1.1009
 Frc consts  --      6.4592                 6.4712                 6.4737
 IR Inten    --    108.3060               157.7213                64.3342

                     97                     98                     99
                      A                      A                      A
 Frequencies --   3159.3495              3171.7345              3171.9002
 Red. masses --      1.1009                 1.1023                 1.1023
 Frc consts  --      6.4744                 6.5334                 6.5339
 IR Inten    --      0.6447                66.8656                 1.7722

 - Thermochemistry -
 -------------------
 Temperature   298.150 Kelvin.  Pressure   1.00000 Atm.
 Atom     1 has atomic number  6 and mass  12.00000

 Molecular mass:   182.17830 amu.
 Principal axes and moments of inertia in atomic units:
                           1         2         3
     Eigenvalues --  1129.129134063.401634381.62483
           X            1.00000   0.00000   0.00045
           Y            0.00000   1.00000   0.00000
           Z           -0.00045   0.00000   1.00000
 This molecule is an asymmetric top.
 Rotational symmetry number  1.
 Warning -- assumption of classical behavior for rotation
           may cause significant error
 Rotational temperatures (Kelvin)      0.07671     0.02132     0.01977
 Rotational constants (GHZ):           1.59835     0.44415     0.41189
 Zero-point vibrational energy     841637.8 (Joules/Mol)
                                  201.15627 (Kcal/Mol)
 Warning -- explicit consideration of  26 degrees of freedom as
           vibrations may cause significant error
 Vibrational temperatures:     21.89    34.55   139.86   172.53   219.73
          (Kelvin)            227.53   340.02   355.82   387.00   390.30
                              405.38   408.68   443.36   445.22   496.84
                              504.10   521.52   523.91   575.77   624.41
                              675.95   698.96   720.96   739.20   824.50
                              889.51  1134.03  1196.70  1241.66  1320.79
                             1340.89  1341.19  1359.63  1365.09  1365.20
                             1390.31  1390.57  1494.76  1498.23  1509.33
                             1514.79  1525.83  1587.68  1605.67  1691.62
                             1756.54  1781.57  1800.41  1802.51  1807.04
                             1818.63  1840.04  1897.56  1910.26  1920.42
                             2007.77  2007.95  2012.31  2013.80  2046.85
                             2047.34  2092.60  2116.47  2120.01  2120.14
                             2131.49  2131.53  2132.68  2135.71  2158.15
                             2158.65  2160.22  2160.71  2176.24  2180.76
                             2190.79  2201.08  4415.39  4415.93  4420.72
                             4421.07  4425.32  4425.55  4433.92  4434.41
                             4520.98  4528.97  4532.58  4533.28  4533.65
                             4535.05  4535.43  4536.08  4540.69  4544.54
                             4545.34  4545.59  4563.41  4563.65

 Zero-point correction=                           0.320563 (Hartree/Particle)
 Thermal correction to Energy=                    0.335819
 Thermal correction to Enthalpy=                  0.336763
 Thermal correction to Gibbs Free Energy=         0.278154
 Sum of electronic and zero-point Energies=           -541.429241
 Sum of electronic and thermal Energies=              -541.413985
 Sum of electronic and thermal Enthalpies=            -541.413041
 Sum of electronic and thermal Free Energies=         -541.471650

                     E (Thermal)             CV                S
                      KCal/Mol        Cal/Mol-Kelvin    Cal/Mol-Kelvin
 Total                  210.730             58.852            123.354
 Electronic               0.000              0.000              0.000
 Translational            0.889              2.981             41.506
 Rotational               0.889              2.981             31.375
 Vibrational            208.952             52.890             50.472
 Vibration     1          0.593              1.986              7.177
 Vibration     2          0.593              1.985              6.271
 Vibration     3          0.603              1.951              3.510
 Vibration     4          0.609              1.933              3.102
 Vibration     5          0.619              1.900              2.638
 Vibration     6          0.621              1.894              2.572
 Vibration     7          0.655              1.785              1.830
 Vibration     8          0.661              1.767              1.750
 Vibration     9          0.673              1.730              1.603
 Vibration    10          0.675              1.726              1.588
 Vibration    11          0.681              1.707              1.523
 Vibration    12          0.682              1.703              1.509
 Vibration    13          0.698              1.658              1.372
 Vibration    14          0.699              1.656              1.365
 Vibration    15          0.724              1.585              1.187
 Vibration    16          0.727              1.574              1.165
 Vibration    17          0.736              1.550              1.111
 Vibration    18          0.738              1.546              1.104
 Vibration    19          0.766              1.470              0.962
 Vibration    20          0.795              1.396              0.846
 Vibration    21          0.827              1.317              0.738
 Vibration    22          0.842              1.282              0.695
 Vibration    23          0.856              1.248              0.655
 Vibration    24          0.869              1.219              0.625
 Vibration    25          0.929              1.090              0.498
 Vibration    26          0.978              0.993              0.419

 Normal termination of Gaussian 09 at Sun Jun 20 22:30:44 2021.
