 Gaussian 09, Revision D.01,
 Gaussian 09:  ES64L-G09RevD.01 24-Apr-2013

 ----------------------------------------------------------
 #p opt freq n12sx/6-311+g(d,p) scrf=(iefpcm,solvent=water)
 ----------------------------------------------------------

 -----
 TITLE
 -----
 Symbolic Z-matrix:
 Charge =  0 Multiplicity = 1

 SCF Done:  E(RN12SX) =  -807.586502468     A.U. after   15 cycles
 SCF Done:  E(RN12SX) =  -807.629542188     A.U. after   14 cycles
 SCF Done:  E(RN12SX) =  -807.605178440     A.U. after   15 cycles
 SCF Done:  E(RN12SX) =  -807.633842479     A.U. after   11 cycles
 SCF Done:  E(RN12SX) =  -807.661328757     A.U. after   14 cycles
 SCF Done:  E(RN12SX) =  -807.675337425     A.U. after   14 cycles
 SCF Done:  E(RN12SX) =  -807.679643717     A.U. after   13 cycles
 SCF Done:  E(RN12SX) =  -807.681017354     A.U. after   12 cycles
 SCF Done:  E(RN12SX) =  -807.682361428     A.U. after   14 cycles
 SCF Done:  E(RN12SX) =  -807.683860171     A.U. after   12 cycles
 SCF Done:  E(RN12SX) =  -807.699132966     A.U. after   10 cycles
 SCF Done:  E(RN12SX) =  -807.699134093     A.U. after   10 cycles
 SCF Done:  E(RN12SX) =  -807.699134522     A.U. after    9 cycles
 SCF Done:  E(RN12SX) =  -807.699134794     A.U. after    9 cycles
 SCF Done:  E(RN12SX) =  -807.699135009     A.U. after    9 cycles
 SCF Done:  E(RN12SX) =  -807.699135199     A.U. after    9 cycles
 SCF Done:  E(RN12SX) =  -807.699135312     A.U. after    9 cycles
 SCF Done:  E(RN12SX) =  -807.699135350     A.U. after    8 cycles
 SCF Done:  E(RN12SX) =  -807.699135356     A.U. after    7 cycles
 Optimization completed.
    -- Stationary point found.
 Normal termination of Gaussian 09 at Tue Jun  8 16:56:35 2021.

 ----------------------------------------------------------------------
 #P Geom=AllCheck Guess=TCheck SCRF=Check GenChk RN12SX/6-311+G(d,p) Fr
 eq
 ----------------------------------------------------------------------

 Structure from the checkpoint file:  "NHC20.chk"
 -----
 TITLE
 -----
 Charge =  0 Multiplicity = 1

                         Standard orientation:
 ---------------------------------------------------------------------
 Center     Atomic      Atomic             Coordinates (Angstroms)
 Number     Number       Type             X           Y           Z
 ---------------------------------------------------------------------
      1          6           0        1.248375    1.092666   -0.213168
      2          7           0        1.164482   -0.290613   -0.019151
      3          6           0       -0.000158   -0.970195    0.038269
      4          7           0       -1.164583   -0.290644   -0.018712
      5          6           0       -1.247018    1.091601   -0.221144
      6          6           0       -0.000969    1.861111    0.147861
      7          6           0        0.000673    3.236531   -0.497183
      8          6           0       -0.005561    1.994502    1.691361
      9          8           0        2.247770    1.647822   -0.594900
     10          8           0       -2.242548    1.644150   -0.616431
     11          6           0        2.449117   -1.095869   -0.013096
     12          6           0        3.419981   -0.486850    0.998145
     13          6           0        3.038246   -1.118843   -1.421278
     14          6           0        2.157991   -2.525519    0.421142
     15          6           0       -2.449106   -1.095716   -0.010511
     16          6           0       -2.159783   -2.519549    0.443847
     17          6           0       -3.029734   -1.135598   -1.421732
     18          6           0       -3.426340   -0.474755    0.987275
     19          1           0        0.883343    3.786641   -0.188020
     20          1           0       -0.884245    3.786193   -0.193623
     21          1           0        0.004079    3.163303   -1.581798
     22          1           0       -0.006451    1.027223    2.186079
     23          1           0        0.875848    2.548198    2.005244
     24          1           0       -0.889344    2.547189    2.000335
     25          1           0        2.962501   -0.445922    1.985494
     26          1           0        4.300087   -1.122420    1.064756
     27          1           0        3.742371    0.508642    0.717067
     28          1           0        2.318900   -1.539454   -2.122218
     29          1           0        3.924734   -1.750306   -1.430415
     30          1           0        3.319433   -0.126874   -1.757038
     31          1           0        3.110122   -3.049945    0.481465
     32          1           0        1.681869   -2.557562    1.397985
     33          1           0        1.514979   -3.042306   -0.282172
     34          1           0       -1.687552   -2.538021    1.423039
     35          1           0       -3.111954   -3.043441    0.507884
     36          1           0       -1.513818   -3.045708   -0.249634
     37          1           0       -3.307328   -0.147260   -1.771211
     38          1           0       -3.917113   -1.765847   -1.428707
     39          1           0       -2.306590   -1.565704   -2.112943
     40          1           0       -4.305567   -1.111110    1.057550
     41          1           0       -2.974461   -0.419803    1.976543
     42          1           0       -3.749193    0.516222    0.691303
 ---------------------------------------------------------------------

 SCF Done:  E(RN12SX) =  -807.699135356     A.U. after    1 cycles

 The electronic state is 1-A.
 Alpha  occ. eigenvalues --  -19.17406 -19.17398 -14.42304 -14.42294 -10.35351
 Alpha  occ. eigenvalues --  -10.35346 -10.27789 -10.27788 -10.26908 -10.26836
 Alpha  occ. eigenvalues --  -10.23141 -10.21369 -10.20382 -10.20380 -10.20347
 Alpha  occ. eigenvalues --  -10.20344 -10.20202 -10.20201  -1.08183  -1.07128
 Alpha  occ. eigenvalues --   -0.99466  -0.93357  -0.84849  -0.81216  -0.79862
 Alpha  occ. eigenvalues --   -0.71401  -0.70101  -0.69329  -0.69298  -0.69005
 Alpha  occ. eigenvalues --   -0.67913  -0.64852  -0.63438  -0.58354  -0.56702
 Alpha  occ. eigenvalues --   -0.55035  -0.49684  -0.48818  -0.47410  -0.47091
 Alpha  occ. eigenvalues --   -0.46655  -0.46495  -0.44662  -0.44223  -0.43154
 Alpha  occ. eigenvalues --   -0.42979  -0.42733  -0.40657  -0.39960  -0.39270
 Alpha  occ. eigenvalues --   -0.38660  -0.38336  -0.37870  -0.37729  -0.37418
 Alpha  occ. eigenvalues --   -0.37161  -0.36253  -0.36122  -0.36045  -0.35764
 Alpha  occ. eigenvalues --   -0.34827  -0.34085  -0.33707  -0.33047  -0.32749
 Alpha  occ. eigenvalues --   -0.29979  -0.27321  -0.27209  -0.20965
 Alpha virt. eigenvalues --   -0.07439  -0.01257  -0.00711   0.00357   0.00371
 Alpha virt. eigenvalues --    0.00614   0.01956   0.02243   0.02333   0.02523
 Alpha virt. eigenvalues --    0.02534   0.03040   0.04268   0.04368   0.04732

 Mulliken charges:
               1
     1  C   -0.358361
     2  N    0.541277
     3  C   -0.317016
     4  N    0.544466
     5  C   -0.359761
     6  C    0.517586
     7  C   -0.502306
     8  C   -0.581632
     9  O   -0.297071
    10  O   -0.297456
    11  C   -0.258424
    12  C   -0.446502
    13  C   -0.356354
    14  C   -0.573591
    15  C   -0.266118
    16  C   -0.568198
    17  C   -0.356552
    18  C   -0.448252
    19  H    0.194051
    20  H    0.193945
    21  H    0.192698
    22  H    0.198063
    23  H    0.203593
    24  H    0.203659
    25  H    0.169280
    26  H    0.177323
    27  H    0.188626
    28  H    0.168464
    29  H    0.172726
    30  H    0.186813
    31  H    0.175255
    32  H    0.174991
    33  H    0.185568
    34  H    0.174774
    35  H    0.175165
    36  H    0.186019
    37  H    0.186652
    38  H    0.172705
    39  H    0.168422
    40  H    0.177440
    41  H    0.169439
    42  H    0.188596
 Sum of Mulliken charges =   0.00000

 Dipole moment (field-independent basis, Debye):
    X=             -0.0128    Y=             -1.6316    Z=              2.5160  Tot=              2.9988
 Quadrupole moment (field-independent basis, Debye-Ang):
   XX=           -114.2149   YY=           -113.6236   ZZ=           -108.9830
   XY=             -0.0386   XZ=             -0.1008   YZ=              5.4550

  Exact polarizability: 270.111  -0.010 245.818   0.115  -4.596 207.258
 Approx polarizability: 297.108   0.006 264.694   0.218  -9.079 231.035

                      1                      2                      3
                      A                      A                      A
 Frequencies --      3.9922                38.3120                67.6386
 Red. masses --      3.3775                 3.0446                 3.4831
 Frc consts  --      0.0000                 0.0026                 0.0094
 IR Inten    --      0.3364                 1.4049                 5.0326

                      4                      5                      6
                      A                      A                      A
 Frequencies --     78.1664               133.2574               155.1481
 Red. masses --      3.7616                 3.5230                 3.0621
 Frc consts  --      0.0135                 0.0369                 0.0434
 IR Inten    --      0.9344                 1.2869                 2.5112

                      7                      8                      9
                      A                      A                      A
 Frequencies --    179.9483               196.6973               211.2818
 Red. masses --      1.6046                 1.2796                 1.7661
 Frc consts  --      0.0306                 0.0292                 0.0465
 IR Inten    --      0.3557                 0.5720                 0.5874

                     10                     11                     12
                      A                      A                      A
 Frequencies --    217.2091               234.4300               237.7760
 Red. masses --      1.2128                 1.9454                 1.2689
 Frc consts  --      0.0337                 0.0630                 0.0423
 IR Inten    --      0.3235                 0.5371                 0.4505

                     13                     14                     15
                      A                      A                      A
 Frequencies --    240.0639               244.6306               254.0915
 Red. masses --      3.8499                 1.0747                 1.1188
 Frc consts  --      0.1307                 0.0379                 0.0426
 IR Inten    --     13.0032                 0.1974                 1.0099

                     16                     17                     18
                      A                      A                      A
 Frequencies --    264.5664               266.9307               310.0892
 Red. masses --      2.5964                 1.6468                 1.2304
 Frc consts  --      0.1071                 0.0691                 0.0697
 IR Inten    --      1.0496                 0.0307                 0.5804

                     19                     20                     21
                      A                      A                      A
 Frequencies --    310.4403               316.1195               316.5419
 Red. masses --      1.7929                 2.3151                 1.5615
 Frc consts  --      0.1018                 0.1363                 0.0922
 IR Inten    --      2.1325                 4.4359                 2.7413

                     22                     23                     24
                      A                      A                      A
 Frequencies --    330.0197               347.8976               365.0059
 Red. masses --      2.2674                 3.3029                 3.5230
 Frc consts  --      0.1455                 0.2355                 0.2765
 IR Inten    --     18.6040                14.1090                17.1631

                     25                     26                     27
                      A                      A                      A
 Frequencies --    367.7806               391.5950               402.8538
 Red. masses --      3.9620                 2.2925                 3.4270
 Frc consts  --      0.3157                 0.2071                 0.3277
 IR Inten    --      9.3588                 4.7523                 7.4125

                     28                     29                     30
                      A                      A                      A
 Frequencies --    425.3433               441.8352               469.7147
 Red. masses --      2.8254                 2.8575                 3.0943
 Frc consts  --      0.3012                 0.3287                 0.4022
 IR Inten    --      0.2174                 0.2485                21.7996

                     31                     32                     33
                      A                      A                      A
 Frequencies --    502.6213               512.7418               518.1156
 Red. masses --      2.7822                 5.5111                 4.3089
 Frc consts  --      0.4141                 0.8537                 0.6815
 IR Inten    --     13.5341                 5.9276                12.8667

                     34                     35                     36
                      A                      A                      A
 Frequencies --    530.3332               564.1369               720.5034
 Red. masses --      4.0051                 2.7007                 4.5496
 Frc consts  --      0.6637                 0.5064                 1.3915
 IR Inten    --     10.0077                 0.0788                 0.6850

                     37                     38                     39
                      A                      A                      A
 Frequencies --    747.8412               764.5851               775.5377
 Red. masses --      5.3194                 7.9674                 7.5780
 Frc consts  --      1.7528                 2.7442                 2.6854
 IR Inten    --      0.0373                 2.4831                 1.0999

                     40                     41                     42
                      A                      A                      A
 Frequencies --    811.5593               836.7564               866.2054
 Red. masses --      5.7871                 3.5985                 2.5407
 Frc consts  --      2.2457                 1.4845                 1.1232
 IR Inten    --     13.4327                 4.8325                11.1982

                     43                     44                     45
                      A                      A                      A
 Frequencies --    902.3705               922.3434               944.2260
 Red. masses --      3.1613                 2.4537                 1.6220
 Frc consts  --      1.5166                 1.2299                 0.8520
 IR Inten    --     14.1587                 5.2061                 0.0947

                     46                     47                     48
                      A                      A                      A
 Frequencies --    944.9008               947.6858               948.0985
 Red. masses --      1.6180                 1.5602                 1.5693
 Frc consts  --      0.8511                 0.8256                 0.8311
 IR Inten    --      1.9311                 5.2256                 6.5835

                     49                     50                     51
                      A                      A                      A
 Frequencies --    971.3122               972.7292               976.2281
 Red. masses --      1.1994                 1.2004                 1.6216
 Frc consts  --      0.6667                 0.6692                 0.9105
 IR Inten    --      0.0744                 0.0564                 8.8343

                     52                     53                     54
                      A                      A                      A
 Frequencies --   1027.3364              1030.3932              1047.7460
 Red. masses --      2.0670                 1.3604                 1.5722
 Frc consts  --      1.2853                 0.8510                 1.0169
 IR Inten    --     33.9437                11.5559                22.6296

                     55                     56                     57
                      A                      A                      A
 Frequencies --   1051.1019              1058.0418              1058.3620
 Red. masses --      1.4653                 1.3976                 1.3994
 Frc consts  --      0.9538                 0.9218                 0.9236
 IR Inten    --      7.7534                 0.7406                 0.1349

                     58                     59                     60
                      A                      A                      A
 Frequencies --   1138.4224              1167.9414              1208.8643
 Red. masses --      4.4897                 2.7972                 2.6700
 Frc consts  --      3.4282                 2.2481                 2.2989
 IR Inten    --    111.6217                 1.9320                 9.4494

                     61                     62                     63
                      A                      A                      A
 Frequencies --   1216.0180              1228.5394              1250.0741
 Red. masses --      2.3313                 3.2153                 4.5379
 Frc consts  --      2.0311                 2.8592                 4.1781
 IR Inten    --    261.9507                61.2616               233.5058

                     64                     65                     66
                      A                      A                      A
 Frequencies --   1257.9004              1266.2714              1266.6009
 Red. masses --      3.2896                 2.8678                 2.9325
 Frc consts  --      3.0668                 2.7093                 2.7718
 IR Inten    --     82.6279                34.5157                 2.9685

                     67                     68                     69
                      A                      A                      A
 Frequencies --   1288.1767              1320.4563              1368.4965
 Red. masses --      3.1287                 4.2461                 3.9448
 Frc consts  --      3.0589                 4.3620                 4.3527
 IR Inten    --      1.9840                 2.2418               430.4594

                     70                     71                     72
                      A                      A                      A
 Frequencies --   1395.3670              1395.5742              1399.4861
 Red. masses --      1.2651                 1.2652                 1.2893
 Frc consts  --      1.4513                 1.4518                 1.4878
 IR Inten    --      8.0563                49.9311                30.6912

                     73                     74                     75
                      A                      A                      A
 Frequencies --   1400.3694              1403.9532              1422.0457
 Red. masses --      1.2897                 1.3187                 1.2738
 Frc consts  --      1.4901                 1.5315                 1.5177
 IR Inten    --     35.5287                12.8652               111.1054

                     76                     77                     78
                      A                      A                      A
 Frequencies --   1423.6985              1424.3950              1450.0070
 Red. masses --      1.2776                 1.2381                 5.4424
 Frc consts  --      1.5258                 1.4800                 6.7419
 IR Inten    --     49.7272                60.7698               453.9094

                     79                     80                     81
                      A                      A                      A
 Frequencies --   1468.3140              1469.2680              1478.5804
 Red. masses --      1.0478                 1.0479                 1.0466
 Frc consts  --      1.3309                 1.3328                 1.3481
 IR Inten    --      4.8371                 0.1920                 1.6372

                     82                     83                     84
                      A                      A                      A
 Frequencies --   1479.1050              1481.6879              1482.2695
 Red. masses --      1.0476                 1.0438                 1.0499
 Frc consts  --      1.3504                 1.3501                 1.3591
 IR Inten    --      7.6004                 0.9167                 3.1600

                     85                     86                     87
                      A                      A                      A
 Frequencies --   1482.6900              1482.8990              1497.0975
 Red. masses --      1.0516                 1.0452                 1.0757
 Frc consts  --      1.3621                 1.3542                 1.4204
 IR Inten    --      2.1644                11.7274                16.8505

                     88                     89                     90
                      A                      A                      A
 Frequencies --   1497.3477              1498.1217              1504.1628
 Red. masses --      1.0746                 1.0685                 1.0546
 Frc consts  --      1.4195                 1.4130                 1.4058
 IR Inten    --     19.3709                12.4597                 6.2865

                     91                     92                     93
                      A                      A                      A
 Frequencies --   1504.3788              1506.4901              1518.5784
 Red. masses --      1.0549                 1.1044                 1.0582
 Frc consts  --      1.4066                 1.4768                 1.4377
 IR Inten    --      3.7838                62.1092                24.0754

                     94                     95                     96
                      A                      A                      A
 Frequencies --   1518.8484              1768.9664              1810.6066
 Red. masses --      1.0591                12.3151                12.1704
 Frc consts  --      1.4394                22.7053                23.5074
 IR Inten    --     56.1926               728.3898               380.2984

                     97                     98                     99
                      A                      A                      A
 Frequencies --   3076.6082              3076.8768              3081.0083
 Red. masses --      1.0380                 1.0381                 1.0386
 Frc consts  --      5.7890                 5.7904                 5.8087
 IR Inten    --     24.2160                53.1794                27.6659

                    100                    101                    102
                      A                      A                      A
 Frequencies --   3081.0360              3084.4610              3087.7280
 Red. masses --      1.0386                 1.0335                 1.0397
 Frc consts  --      5.8087                 5.7930                 5.8404
 IR Inten    --      5.2208                17.2492                28.5571

                    103                    104                    105
                      A                      A                      A
 Frequencies --   3087.8784              3098.9286              3147.4297
 Red. masses --      1.0396                 1.0359                 1.1020
 Frc consts  --      5.8402                 5.8611                 6.4322
 IR Inten    --     47.2318                18.8313                33.0912

                    106                    107                    108
                      A                      A                      A
 Frequencies --   3147.5231              3152.0039              3152.2053
 Red. masses --      1.1021                 1.1016                 1.1016
 Frc consts  --      6.4327                 6.4484                 6.4493
 IR Inten    --     17.0129                 2.7417                 6.5419

                    109                    110                    111
                      A                      A                      A
 Frequencies --   3159.5623              3160.2359              3169.6723
 Red. masses --      1.1010                 1.1008                 1.1042
 Frc consts  --      6.4758                 6.4776                 6.5360
 IR Inten    --    137.9338                42.1451                 8.8856

                    112                    113                    114
                      A                      A                      A
 Frequencies --   3178.7705              3179.0053              3190.2427
 Red. masses --      1.1032                 1.1030                 1.1007
 Frc consts  --      6.5680                 6.5676                 6.6006
 IR Inten    --     17.0858                24.6073                29.8472

                    115                    116                    117
                      A                      A                      A
 Frequencies --   3190.6844              3191.3282              3192.4269
 Red. masses --      1.1005                 1.0999                 1.0996
 Frc consts  --      6.6010                 6.5998                 6.6027
 IR Inten    --     20.4638                10.9826                11.6878

                    118                    119                    120
                      A                      A                      A
 Frequencies --   3193.2032              3200.5694              3201.6807
 Red. masses --      1.1035                 1.0988                 1.0986
 Frc consts  --      6.6292                 6.6318                 6.6350
 IR Inten    --     11.6139                16.3632                16.7073

 - Thermochemistry -
 -------------------
 Temperature   298.150 Kelvin.  Pressure   1.00000 Atm.
 Atom     1 has atomic number  6 and mass  12.00000

 Molecular mass:   252.18378 amu.
 Principal axes and moments of inertia in atomic units:
                           1         2         3
     Eigenvalues --  3060.850894829.977306621.60493
           X            1.00000  -0.00010  -0.00014
           Y            0.00010   0.99993   0.01181
           Z            0.00014  -0.01181   0.99993
 This molecule is an asymmetric top.
 Rotational symmetry number  1.
 Warning -- assumption of classical behavior for rotation
           may cause significant error
 Rotational temperatures (Kelvin)      0.02830     0.01793     0.01308
 Rotational constants (GHZ):           0.58962     0.37365     0.27255
 Zero-point vibrational energy     965364.4 (Joules/Mol)
                                  230.72763 (Kcal/Mol)
 Warning -- explicit consideration of  35 degrees of freedom as
           vibrations may cause significant error
 Vibrational temperatures:      5.74    55.12    97.32   112.46   191.73
          (Kelvin)            223.22   258.91   283.00   303.99   312.52
                              337.29   342.11   345.40   351.97   365.58
                              380.65   384.05   446.15   446.65   454.82
                              455.43   474.82   500.55   525.16   529.15
                              563.42   579.62   611.97   635.70   675.81
                              723.16   737.72   745.45   763.03   811.67
                             1036.64  1075.98  1100.07  1115.82  1167.65
                             1203.90  1246.27  1298.31  1327.04  1358.53
                             1359.50  1363.51  1364.10  1397.50  1399.54
                             1404.57  1478.11  1482.50  1507.47  1512.30
                             1522.28  1522.75  1637.93  1680.41  1739.28
                             1749.58  1767.59  1798.58  1809.84  1821.88
                             1822.35  1853.40  1899.84  1968.96  2007.62
                             2007.92  2013.55  2014.82  2019.97  2046.00
                             2048.38  2049.38  2086.23  2112.57  2113.95
                             2127.34  2128.10  2131.82  2132.65  2133.26
                             2133.56  2153.99  2154.35  2155.46  2164.15
                             2164.46  2167.50  2184.89  2185.28  2545.14
                             2605.06  4426.55  4426.93  4432.88  4432.92
                             4437.85  4442.55  4442.76  4458.66  4528.44
                             4528.58  4535.02  4535.31  4545.90  4546.87
                             4560.45  4573.54  4573.87  4590.04  4590.68
                             4591.60  4593.18  4594.30  4604.90  4606.50

 Zero-point correction=                           0.367688 (Hartree/Particle)
 Thermal correction to Energy=                    0.387852
 Thermal correction to Enthalpy=                  0.388796
 Thermal correction to Gibbs Free Energy=         0.319348
 Sum of electronic and zero-point Energies=           -807.331447
 Sum of electronic and thermal Energies=              -807.311284
 Sum of electronic and thermal Enthalpies=            -807.310340
 Sum of electronic and thermal Free Energies=         -807.379788

                     E (Thermal)             CV                S
                      KCal/Mol        Cal/Mol-Kelvin    Cal/Mol-Kelvin
 Total                  243.381             78.262            146.166
 Electronic               0.000              0.000              0.000
 Translational            0.889              2.981             42.475
 Rotational               0.889              2.981             32.948
 Vibrational            241.603             72.300             70.742
 Vibration     1          0.593              1.987              9.836
 Vibration     2          0.594              1.982              5.345
 Vibration     3          0.598              1.970              4.221
 Vibration     4          0.599              1.964              3.936
 Vibration     5          0.613              1.920              2.898
 Vibration     6          0.620              1.897              2.608
 Vibration     7          0.629              1.867              2.329
 Vibration     8          0.636              1.844              2.164
 Vibration     9          0.643              1.824              2.033
 Vibration    10          0.646              1.815              1.982
 Vibration    11          0.654              1.788              1.845
 Vibration    12          0.656              1.783              1.819
 Vibration    13          0.657              1.779              1.802
 Vibration    14          0.660              1.772              1.769
 Vibration    15          0.665              1.756              1.702
 Vibration    16          0.671              1.738              1.631
 Vibration    17          0.672              1.734              1.616
 Vibration    18          0.699              1.654              1.362
 Vibration    19          0.699              1.654              1.360
 Vibration    20          0.703              1.643              1.330
 Vibration    21          0.703              1.642              1.328
 Vibration    22          0.713              1.616              1.260
 Vibration    23          0.726              1.580              1.176
 Vibration    24          0.738              1.544              1.101
 Vibration    25          0.740              1.538              1.089
 Vibration    26          0.759              1.488              0.994
 Vibration    27          0.768              1.464              0.952
 Vibration    28          0.787              1.415              0.874
 Vibration    29          0.802              1.379              0.821
 Vibration    30          0.827              1.317              0.738
 Vibration    31          0.858              1.244              0.652
 Vibration    32          0.868              1.222              0.627
 Vibration    33          0.873              1.210              0.614
 Vibration    34          0.885              1.183              0.586
 Vibration    35          0.920              1.109              0.516

 Optimization completed on the basis of negligible forces.
    -- Stationary point found.
 Normal termination of Gaussian 09 at Wed Jun  9 00:19:02 2021.
