 Gaussian 09, Revision D.01,
 Gaussian 09:  ES64L-G09RevD.01 24-Apr-2013

 ----------------------------------------------------------
 #p opt freq n12sx/6-311+g(d,p) scrf=(iefpcm,solvent=water)
 ----------------------------------------------------------

 -----
 TITLE
 -----
 Symbolic Z-matrix:
 Charge =  0 Multiplicity = 1

 SCF Done:  E(RN12SX) =  -336.683364716     A.U. after   15 cycles
 SCF Done:  E(RN12SX) =  -336.725226309     A.U. after   12 cycles
 SCF Done:  E(RN12SX) =  -336.738882740     A.U. after   12 cycles
 SCF Done:  E(RN12SX) =  -336.739810843     A.U. after   11 cycles
 SCF Done:  E(RN12SX) =  -336.739973616     A.U. after   11 cycles
 SCF Done:  E(RN12SX) =  -336.740009131     A.U. after    9 cycles
 SCF Done:  E(RN12SX) =  -336.740003975     A.U. after   10 cycles
 SCF Done:  E(RN12SX) =  -336.740027597     A.U. after    9 cycles
 Optimization completed.
    -- Stationary point found.
 Normal termination of Gaussian 09 at Wed Jun  9 17:56:24 2021.

 ----------------------------------------------------------------------
 #P Geom=AllCheck Guess=TCheck SCRF=Check GenChk RN12SX/6-311+G(d,p) Fr
 eq
 ----------------------------------------------------------------------

 Structure from the checkpoint file:  "NHC31-.chk"
 -----
 TITLE
 -----
 Charge =  0 Multiplicity = 1

                         Standard orientation:
 ---------------------------------------------------------------------
 Center     Atomic      Atomic             Coordinates (Angstroms)
 Number     Number       Type             X           Y           Z
 ---------------------------------------------------------------------
      1          7           0       -0.024743   -0.837596    0.000502
      2          7           0        0.990806   -0.056864    0.000084
      3          7           0        0.685382    1.239104    0.000190
      4          6           0       -0.653702    1.321291   -0.000119
      5          7           0       -1.038164    0.000409   -0.000083
      6          6           0       -2.388576   -0.518520   -0.000162
      7          6           0        2.350399   -0.552374   -0.000267
      8          1           0       -3.058146    0.331620   -0.000373
      9          1           0       -2.555835   -1.119779   -0.887993
     10          1           0       -2.556028   -1.119495    0.887823
     11          1           0        2.317509   -1.633887   -0.000001
     12          1           0        2.855135   -0.188317   -0.888279
     13          1           0        2.855684   -0.187899    0.887257
 ---------------------------------------------------------------------

 SCF Done:  E(RN12SX) =  -336.740027597     A.U. after    1 cycles

 The electronic state is 1-A.
 Alpha  occ. eigenvalues --  -14.51525 -14.47190 -14.46579 -14.40112 -10.27501
 Alpha  occ. eigenvalues --  -10.26408 -10.25036  -1.18786  -0.98992  -0.91412
 Alpha  occ. eigenvalues --   -0.81582  -0.71921  -0.67420  -0.62476  -0.54672
 Alpha  occ. eigenvalues --   -0.54078  -0.48672  -0.46919  -0.43540  -0.42178
 Alpha  occ. eigenvalues --   -0.41624  -0.38166  -0.32268  -0.31878  -0.29894
 Alpha  occ. eigenvalues --   -0.23677
 Alpha virt. eigenvalues --   -0.06248  -0.00275   0.00630   0.01151   0.02405
 Alpha virt. eigenvalues --    0.03205   0.03711   0.04668   0.05202   0.05613
 Alpha virt. eigenvalues --    0.06421   0.07446   0.07989   0.10184   0.12054

 Mulliken charges:
               1
     1  N    0.099581
     2  N    0.093920
     3  N   -0.219636
     4  C   -0.398489
     5  N   -0.193899
     6  C   -0.289434
     7  C   -0.307309
     8  H    0.194120
     9  H    0.199142
    10  H    0.199138
    11  H    0.203939
    12  H    0.209478
    13  H    0.209450
 Sum of Mulliken charges =   0.00000

 Dipole moment (field-independent basis, Debye):
    X=              1.3872    Y=             -6.0470    Z=             -0.0007  Tot=              6.2040
 Quadrupole moment (field-independent basis, Debye-Ang):
   XX=            -27.4739   YY=            -53.1231   ZZ=            -40.5485
   XY=              1.3750   XZ=             -0.0015   YZ=              0.0019

  Exact polarizability: 102.417  -0.768  88.613   0.001  -0.003  58.256
 Approx polarizability: 115.530   3.922 109.087   0.002  -0.005  67.892

                      1                      2                      3
                      A                      A                      A
 Frequencies --     64.6908                73.5024               196.9163
 Red. masses --      1.1054                 1.0326                 3.1817
 Frc consts  --      0.0027                 0.0033                 0.0727
 IR Inten    --      2.0836                 0.0532                 4.2984

                      4                      5                      6
                      A                      A                      A
 Frequencies --    294.7469               307.4632               458.9655
 Red. masses --      2.6715                 4.1382                 3.3998
 Frc consts  --      0.1367                 0.2305                 0.4219
 IR Inten    --     16.2023                 1.2879                 0.3193

                      7                      8                      9
                      A                      A                      A
 Frequencies --    661.2878               688.0043               719.5611
 Red. masses --      4.3992                 9.5548                 8.3730
 Frc consts  --      1.1335                 2.6647                 2.5543
 IR Inten    --     13.5552                 0.7245                 1.1754

                     10                     11                     12
                      A                      A                      A
 Frequencies --    772.2702               991.1028              1066.6685
 Red. masses --      5.4336                 3.6838                 2.4116
 Frc consts  --      1.9093                 2.1320                 1.6166
 IR Inten    --     39.4757                 8.3759                 8.9261

                     13                     14                     15
                      A                      A                      A
 Frequencies --   1100.7041              1128.7215              1154.7875
 Red. masses --      3.3700                 3.2233                 1.3567
 Frc consts  --      2.4056                 2.4195                 1.0659
 IR Inten    --     14.4906                 2.0129                 0.6214

                     16                     17                     18
                      A                      A                      A
 Frequencies --   1158.9894              1260.2928              1295.1849
 Red. masses --      1.3510                 5.4668                 3.5089
 Frc consts  --      1.0692                 5.1159                 3.4680
 IR Inten    --      0.7161                60.1691                 7.8270

                     19                     20                     21
                      A                      A                      A
 Frequencies --   1392.6833              1425.1515              1452.2161
 Red. masses --      6.2167                 3.5840                 1.2768
 Frc consts  --      7.1042                 4.2888                 1.5865
 IR Inten    --     59.5425                 7.7700                 1.4276

                     22                     23                     24
                      A                      A                      A
 Frequencies --   1464.0100              1473.7209              1479.9378
 Red. masses --      1.4845                 1.0362                 1.3273
 Frc consts  --      1.8746                 1.3260                 1.7128
 IR Inten    --      9.1837                21.7086                25.2353

                     25                     26                     27
                      A                      A                      A
 Frequencies --   1483.9042              1499.0260              1549.5459
 Red. masses --      1.0359                 1.0675                 3.1816
 Frc consts  --      1.3439                 1.4133                 4.5009
 IR Inten    --     23.5329                21.8428                 2.2326

                     28                     29                     30
                      A                      A                      A
 Frequencies --   3110.7545              3120.9603              3194.0993
 Red. masses --      1.0335                 1.0320                 1.1066
 Frc consts  --      5.8922                 5.9225                 6.6520
 IR Inten    --     23.9636                 9.6372                 6.6142

                     31                     32                     33
                      A                      A                      A
 Frequencies --   3209.9228              3227.3815              3237.9714
 Red. masses --      1.1068                 1.1045                 1.1068
 Frc consts  --      6.7188                 6.7781                 6.8371
 IR Inten    --      1.5830                 1.2204                 0.1100

 - Thermochemistry -
 -------------------
 Temperature   298.150 Kelvin.  Pressure   1.00000 Atm.
 Atom     1 has atomic number  7 and mass  14.00307

 Molecular mass:    98.05925 amu.
 Principal axes and moments of inertia in atomic units:
                           1         2         3
     Eigenvalues --   241.51000 796.088881014.90332
           X            1.00000  -0.00095   0.00000
           Y            0.00095   1.00000   0.00002
           Z            0.00000  -0.00002   1.00000
 This molecule is an asymmetric top.
 Rotational symmetry number  1.
 Rotational temperatures (Kelvin)      0.35863     0.10880     0.08534
 Rotational constants (GHZ):           7.47274     2.26701     1.77824
 Zero-point vibrational energy     273437.3 (Joules/Mol)
                                   65.35308 (Kcal/Mol)
 Warning -- explicit consideration of   6 degrees of freedom as
           vibrations may cause significant error
 Vibrational temperatures:     93.08   105.75   283.32   424.07   442.37
          (Kelvin)            660.35   951.44   989.88  1035.29  1111.12
                             1425.97  1534.70  1583.67  1623.98  1661.48
                             1667.53  1813.28  1863.48  2003.76  2050.47
                             2089.41  2106.38  2120.35  2129.30  2135.00
                             2156.76  2229.45  4475.68  4490.36  4595.59
                             4618.36  4643.48  4658.71

 Zero-point correction=                           0.104147 (Hartree/Particle)
 Thermal correction to Energy=                    0.110898
 Thermal correction to Enthalpy=                  0.111842
 Thermal correction to Gibbs Free Energy=         0.072735
 Sum of electronic and zero-point Energies=           -336.635881
 Sum of electronic and thermal Energies=              -336.629130
 Sum of electronic and thermal Enthalpies=            -336.628186
 Sum of electronic and thermal Free Energies=         -336.667293

                     E (Thermal)             CV                S
                      KCal/Mol        Cal/Mol-Kelvin    Cal/Mol-Kelvin
 Total                   69.589             22.455             82.307
 Electronic               0.000              0.000              0.000
 Translational            0.889              2.981             39.660
 Rotational               0.889              2.981             26.770
 Vibrational             67.812             16.494             15.878
 Vibration     1          0.597              1.971              4.309
 Vibration     2          0.599              1.967              4.057
 Vibration     3          0.636              1.844              2.162
 Vibration     4          0.689              1.684              1.447
 Vibration     5          0.697              1.660              1.376
 Vibration     6          0.817              1.341              0.769

 Optimization completed.
    -- Stationary point found.
 Normal termination of Gaussian 09 at Wed Jun  9 17:58:51 2021.
