 Gaussian 09, Revision D.01,
 Gaussian 09:  ES64L-G09RevD.01 24-Apr-2013

 ------------------------------------------------------------
 #p opt freq n12sx/6-311+g(d,p) scrf=(iefpcm,solvent=ethanol)
 ------------------------------------------------------------

 -----
 TITLE
 -----
 Symbolic Z-matrix:
 Charge =  0 Multiplicity = 1

 SCF Done:  E(RN12SX) =  -924.566896582     A.U. after   13 cycles
 SCF Done:  E(RN12SX) =  -924.568903008     A.U. after   11 cycles
 SCF Done:  E(RN12SX) =  -924.570642120     A.U. after   12 cycles
 SCF Done:  E(RN12SX) =  -924.571965299     A.U. after   11 cycles
 SCF Done:  E(RN12SX) =  -924.573583485     A.U. after   12 cycles
 SCF Done:  E(RN12SX) =  -924.573313063     A.U. after   13 cycles
 SCF Done:  E(RN12SX) =  -924.573642264     A.U. after   11 cycles
 SCF Done:  E(RN12SX) =  -924.573755518     A.U. after   11 cycles
 SCF Done:  E(RN12SX) =  -924.573859572     A.U. after   11 cycles
 SCF Done:  E(RN12SX) =  -924.573858984     A.U. after   13 cycles
 SCF Done:  E(RN12SX) =  -924.574312001     A.U. after    9 cycles
 SCF Done:  E(RN12SX) =  -924.574314490     A.U. after    8 cycles
 SCF Done:  E(RN12SX) =  -924.574315075     A.U. after    8 cycles
 SCF Done:  E(RN12SX) =  -924.574315604     A.U. after    7 cycles
 SCF Done:  E(RN12SX) =  -924.574316217     A.U. after    8 cycles
 SCF Done:  E(RN12SX) =  -924.574316654     A.U. after    8 cycles
 SCF Done:  E(RN12SX) =  -924.574317018     A.U. after    7 cycles
 SCF Done:  E(RN12SX) =  -924.574317077     A.U. after    6 cycles
 SCF Done:  E(RN12SX) =  -924.574317064     A.U. after    6 cycles
 Optimization completed.
    -- Stationary point found.
 Normal termination of Gaussian 09 at Mon Nov 22 00:57:02 2021.

 ----------------------------------------------------------------------
 #P Geom=AllCheck Guess=TCheck SCRF=Check GenChk RN12SX/6-311+G(d,p) Fr
 eq
 ----------------------------------------------------------------------

 Structure from the checkpoint file:  "reag_NHC18_et.chk"
 -----
 TITLE
 -----
 Charge =  0 Multiplicity = 1

                         Standard orientation:
 ---------------------------------------------------------------------
 Center     Atomic      Atomic             Coordinates (Angstroms)
 Number     Number       Type             X           Y           Z
 ---------------------------------------------------------------------
      1          1           0        0.288729    0.311410    0.316237
      2          8           0       -0.700493    0.460791    0.467336
      3          6           0       -0.873028    1.340083    1.548783
      4          1           0       -0.421393    0.927851    2.458804
      5          1           0       -0.370174    2.295004    1.354335
      6          6           0       -5.461268    0.536048   -0.901292
      7          6           0       -3.362640   -1.411012   -0.574525
      8          6           0       -4.284755    0.475677   -1.860678
      9          1           0       -5.713926    1.552772   -0.612045
     10          1           0       -6.353871    0.126125   -1.379596
     11          6           0       -3.786223   -0.954002   -1.946068
     12          1           0       -3.146990   -2.474404   -0.544696
     13          1           0       -2.486891   -0.860257   -0.232685
     14          1           0       -4.587520    0.849998   -2.836007
     15          1           0       -3.479496    1.120030   -1.506884
     16          1           0       -2.927522   -1.036533   -2.610236
     17          1           0       -4.567058   -1.605273   -2.341879
     18          8           0       -4.391134   -1.220679    0.425942
     19          8           0       -6.031019   -0.092286    1.320561
     20          6           0       -5.306736   -0.259155    0.367490
     21          6           0       -2.344182    1.587477    1.788431
     22          1           0       -2.489122    2.265657    2.628290
     23          1           0       -2.807606    2.033948    0.909252
     24          1           0       -2.861696    0.655505    2.010073
     25          6           0        6.071327   -0.364090   -0.312188
     26          6           0        5.300491    0.806740   -0.924963
     27          6           0        4.213665    1.366678   -0.003345
     28          6           0        2.051955    0.082666    0.083797
     29          1           0        6.841537    0.015548    0.360206
     30          1           0        4.843334    0.514992   -1.868673
     31          1           0        4.366785    1.013901    1.015111
     32          1           0        6.600046   -0.889103   -1.108635
     33          1           0        6.006681    1.597749   -1.172690
     34          1           0        4.301131    2.448602    0.038359
     35          6           0        5.190894   -1.349233    0.458453
     36          1           0        4.989568   -0.980548    1.462515
     37          1           0        5.740660   -2.279738    0.591171
     38          6           0        3.856838   -1.638286   -0.234902
     39          1           0        3.886789   -1.295045   -1.267474
     40          1           0        3.699068   -2.712072   -0.280199
     41          6           0        2.098891    2.279708   -0.825825
     42          1           0        1.058004    2.028632   -0.990748
     43          1           0        2.160991    3.095021   -0.102350
     44          1           0        2.528794    2.623920   -1.765655
     45          6           0        1.803162   -2.093675    1.014052
     46          1           0        0.889706   -1.630623    1.367051
     47          1           0        1.551871   -2.896537    0.318532
     48          1           0        2.327067   -2.529787    1.863759
     49          7           0        2.807840    1.101311   -0.351551
     50          7           0        2.635492   -1.087468    0.373367
 ---------------------------------------------------------------------

 SCF Done:  E(RN12SX) =  -924.574317064     A.U. after    1 cycles

 The electronic state is 1-A.
 Alpha  occ. eigenvalues --  -19.21640 -19.15493 -19.12734 -14.39017 -14.38952
 Alpha  occ. eigenvalues --  -10.35985 -10.27262 -10.24999 -10.24981 -10.24765
 Alpha  occ. eigenvalues --  -10.24755 -10.23749 -10.23733 -10.23350 -10.22384
 Alpha  occ. eigenvalues --  -10.22240 -10.21514 -10.21508 -10.21351 -10.19743
 Alpha  occ. eigenvalues --   -1.10491  -1.01548  -0.97889  -0.97337  -0.91781
 Alpha  occ. eigenvalues --   -0.82179  -0.81465  -0.76523  -0.74983  -0.73571
 Alpha  occ. eigenvalues --   -0.72520  -0.70424  -0.67686  -0.66715  -0.62694
 Alpha  occ. eigenvalues --   -0.62620  -0.59385  -0.57760  -0.54177  -0.53213
 Alpha  occ. eigenvalues --   -0.52214  -0.51102  -0.50106  -0.48624  -0.48394
 Alpha  occ. eigenvalues --   -0.47382  -0.46372  -0.45697  -0.45472  -0.45069
 Alpha  occ. eigenvalues --   -0.44827  -0.44191  -0.43170  -0.42964  -0.42266
 Alpha  occ. eigenvalues --   -0.40305  -0.39626  -0.39532  -0.38882  -0.38543
 Alpha  occ. eigenvalues --   -0.37785  -0.37251  -0.36881  -0.36279  -0.36107
 Alpha  occ. eigenvalues --   -0.35158  -0.34901  -0.34234  -0.33218  -0.33205
 Alpha  occ. eigenvalues --   -0.32351  -0.31426  -0.31296  -0.29849  -0.29282
 Alpha  occ. eigenvalues --   -0.27594  -0.24800  -0.24637  -0.18999
 Alpha virt. eigenvalues --   -0.01384  -0.01134  -0.00694  -0.00064   0.00351
 Alpha virt. eigenvalues --    0.00884   0.01138   0.01370   0.01917   0.02413
 Alpha virt. eigenvalues --    0.02590   0.02969   0.03183   0.03416   0.03663

 Mulliken charges:
               1
     1  H    0.555746
     2  O   -0.562136
     3  C   -0.070949
     4  H    0.148049
     5  H    0.141512
     6  C   -0.374687
     7  C   -0.375006
     8  C   -0.180752
     9  H    0.220237
    10  H    0.229210
    11  C   -0.377719
    12  H    0.188058
    13  H    0.278851
    14  H    0.187353
    15  H    0.182694
    16  H    0.194893
    17  H    0.190038
    18  O   -0.100454
    19  O   -0.376310
    20  C    0.086917
    21  C   -0.667893
    22  H    0.163386
    23  H    0.160629
    24  H    0.164040
    25  C   -0.585611
    26  C   -0.109241
    27  C   -0.549337
    28  C   -0.566272
    29  H    0.183545
    30  H    0.188450
    31  H    0.182386
    32  H    0.183537
    33  H    0.180316
    34  H    0.187981
    35  C   -0.092935
    36  H    0.189142
    37  H    0.179263
    38  C   -0.586616
    39  H    0.182751
    40  H    0.187448
    41  C   -0.356842
    42  H    0.177781
    43  H    0.175328
    44  H    0.180172
    45  C   -0.332359
    46  H    0.173905
    47  H    0.170289
    48  H    0.178935
    49  N    0.143917
    50  N    0.128357
 Sum of Mulliken charges =   0.00000

 Dipole moment (field-independent basis, Debye):
    X=             11.0255    Y=              0.2844    Z=             -5.3977  Tot=             12.2791
 Quadrupole moment (field-independent basis, Debye-Ang):
   XX=           -134.9071   YY=           -113.0352   ZZ=           -125.1322
   XY=             -3.8992   XZ=             29.1162   YZ=              1.5420

  Exact polarizability: 275.233 -11.005 267.312 -15.795  -7.791 236.922
 Approx polarizability: 283.652  -7.726 291.777 -12.723  -5.042 267.227

                      1                      2                      3
                      A                      A                      A
 Frequencies --     13.3779                18.1841                25.3737
 Red. masses --      4.0064                 4.3976                 5.0876
 Frc consts  --      0.0004                 0.0009                 0.0019
 IR Inten    --      0.5592                 0.7650                 1.7651

                      4                      5                      6
                      A                      A                      A
 Frequencies --     27.9121                36.6053                39.1735
 Red. masses --      4.6305                 3.5042                 3.4845
 Frc consts  --      0.0021                 0.0028                 0.0032
 IR Inten    --      1.4164                 3.9532                 3.7361

                      7                      8                      9
                      A                      A                      A
 Frequencies --     48.5432                52.6196                74.5194
 Red. masses --      3.4814                 2.1742                 2.7339
 Frc consts  --      0.0048                 0.0035                 0.0089
 IR Inten    --      2.3767                 2.2863                 0.1649

                     10                     11                     12
                      A                      A                      A
 Frequencies --     79.3064                85.6872               102.3074
 Red. masses --      4.0496                 4.1947                 4.0851
 Frc consts  --      0.0150                 0.0181                 0.0252
 IR Inten    --      3.7848                 4.5981                 6.8530

                     13                     14                     15
                      A                      A                      A
 Frequencies --    110.3404               112.7307               159.7159
 Red. masses --      3.1635                 2.2776                 3.6150
 Frc consts  --      0.0227                 0.0171                 0.0543
 IR Inten    --      4.9310                 4.2051                 3.7000

                     16                     17                     18
                      A                      A                      A
 Frequencies --    169.2242               175.5015               178.7084
 Red. masses --      1.3713                 2.4699                 1.3053
 Frc consts  --      0.0231                 0.0448                 0.0246
 IR Inten    --      1.0660                16.3405                 1.7588

                     19                     20                     21
                      A                      A                      A
 Frequencies --    191.6187               233.1146               253.9266
 Red. masses --      2.0474                 1.6988                 2.3977
 Frc consts  --      0.0443                 0.0544                 0.0911
 IR Inten    --      0.4854                 5.7846                 6.3899

                     22                     23                     24
                      A                      A                      A
 Frequencies --    268.2353               287.3387               294.0524
 Red. masses --      2.5006                 1.1147                 2.9572
 Frc consts  --      0.1060                 0.0542                 0.1507
 IR Inten    --      0.4729                 1.8334                 6.4372

                     25                     26                     27
                      A                      A                      A
 Frequencies --    331.0060               380.5143               418.7716
 Red. masses --      1.6825                 2.5296                 4.2017
 Frc consts  --      0.1086                 0.2158                 0.4341
 IR Inten    --      1.9766                 0.0109                 2.3400

                     28                     29                     30
                      A                      A                      A
 Frequencies --    432.4968               443.8757               458.0168
 Red. masses --      3.0746                 3.3502                 2.6889
 Frc consts  --      0.3389                 0.3889                 0.3323
 IR Inten    --     16.7755                20.2298                 9.6950

                     31                     32                     33
                      A                      A                      A
 Frequencies --    470.0681               485.9547               510.0502
 Red. masses --      3.7435                 3.1524                 2.5764
 Frc consts  --      0.4874                 0.4386                 0.3949
 IR Inten    --      5.0490                 4.3363                35.0284

                     34                     35                     36
                      A                      A                      A
 Frequencies --    511.2846               516.2791               574.9017
 Red. masses --      2.9369                 2.1645                 3.0247
 Frc consts  --      0.4523                 0.3399                 0.5890
 IR Inten    --      7.8259                 1.5293                11.6420

                     37                     38                     39
                      A                      A                      A
 Frequencies --    592.5721               665.8160               748.2819
 Red. masses --      2.9822                 2.5235                 1.3080
 Frc consts  --      0.6170                 0.6591                 0.4315
 IR Inten    --      8.4988                16.9420                 6.7256

                     40                     41                     42
                      A                      A                      A
 Frequencies --    771.8432               792.0229               814.8182
 Red. masses --      4.2601                 2.4682                 1.0866
 Frc consts  --      1.4953                 0.9122                 0.4251
 IR Inten    --      8.2586                 3.8918                 2.8599

                     43                     44                     45
                      A                      A                      A
 Frequencies --    845.3732               849.7236               887.3202
 Red. masses --      1.5500                 2.5567                 3.9407
 Frc consts  --      0.6527                 1.0877                 1.8280
 IR Inten    --     15.0080                13.6473                28.4050

                     46                     47                     48
                      A                      A                      A
 Frequencies --    905.6106               918.4918               920.3911
 Red. masses --      2.4456                 2.0465                 2.2579
 Frc consts  --      1.1817                 1.0172                 1.1270
 IR Inten    --      4.0554                10.6757                33.4870

                     49                     50                     51
                      A                      A                      A
 Frequencies --    945.2601               948.3427               959.6528
 Red. masses --      1.4609                 1.8210                 2.4617
 Frc consts  --      0.7691                 0.9649                 1.3357
 IR Inten    --     13.4716                 3.4654                31.1691

                     52                     53                     54
                      A                      A                      A
 Frequencies --   1003.8734              1009.6475              1018.1069
 Red. masses --      2.4464                 1.9854                 2.0912
 Frc consts  --      1.4526                 1.1924                 1.2771
 IR Inten    --     18.2857                 3.3793                 8.3154

                     55                     56                     57
                      A                      A                      A
 Frequencies --   1079.5055              1087.5883              1087.9011
 Red. masses --      1.1868                 2.3535                 1.4696
 Frc consts  --      0.8149                 1.6402                 1.0248
 IR Inten    --    134.6817                14.3950                50.7432

                     58                     59                     60
                      A                      A                      A
 Frequencies --   1089.4811              1096.0565              1105.4029
 Red. masses --      2.0034                 2.3705                 1.6551
 Frc consts  --      1.4011                 1.6779                 1.1916
 IR Inten    --     24.1847                37.4676                19.9568

                     61                     62                     63
                      A                      A                      A
 Frequencies --   1118.1512              1121.7724              1128.4940
 Red. masses --      3.4384                 2.3611                 1.8834
 Frc consts  --      2.5328                 1.7505                 1.4131
 IR Inten    --    109.4453                 0.5649                17.1336

                     64                     65                     66
                      A                      A                      A
 Frequencies --   1142.9344              1149.5732              1152.8366
 Red. masses --      2.9145                 1.7163                 1.3369
 Frc consts  --      2.2431                 1.3364                 1.0468
 IR Inten    --    106.0726                21.6177                 0.2022

                     67                     68                     69
                      A                      A                      A
 Frequencies --   1153.8455              1185.9010              1200.5587
 Red. masses --      1.3434                 1.5821                 1.3631
 Frc consts  --      1.0538                 1.3109                 1.1575
 IR Inten    --      5.9678                18.9977                10.9024

                     70                     71                     72
                      A                      A                      A
 Frequencies --   1200.6094              1219.6535              1220.8601
 Red. masses --      1.8277                 2.5477                 1.4095
 Frc consts  --      1.5523                 2.2329                 1.2378
 IR Inten    --     85.3302                17.7039                25.8069

                     73                     74                     75
                      A                      A                      A
 Frequencies --   1240.7215              1241.8467              1282.1183
 Red. masses --      1.7021                 1.2963                 1.9113
 Frc consts  --      1.5438                 1.1778                 1.8511
 IR Inten    --     23.0329                12.8987               262.0509

                     76                     77                     78
                      A                      A                      A
 Frequencies --   1295.7395              1309.0380              1311.4107
 Red. masses --      1.2561                 1.2005                 1.0923
 Frc consts  --      1.2426                 1.2120                 1.1068
 IR Inten    --     21.0002                 8.1872                 1.4007

                     79                     80                     81
                      A                      A                      A
 Frequencies --   1315.2533              1333.3041              1339.9410
 Red. masses --      1.3269                 1.2433                 2.0684
 Frc consts  --      1.3524                 1.3022                 2.1881
 IR Inten    --      8.0938                81.4762                16.7194

                     82                     83                     84
                      A                      A                      A
 Frequencies --   1354.4205              1369.5578              1382.7477
 Red. masses --      1.3946                 1.5602                 1.5516
 Frc consts  --      1.5073                 1.7243                 1.7479
 IR Inten    --     53.6165                23.3143                55.4429

                     85                     86                     87
                      A                      A                      A
 Frequencies --   1384.3537              1384.8052              1388.1713
 Red. masses --      1.2399                 1.3475                 1.3962
 Frc consts  --      1.4000                 1.5225                 1.5852
 IR Inten    --     34.4801                 8.4915                 3.5579

                     88                     89                     90
                      A                      A                      A
 Frequencies --   1398.4057              1401.5484              1403.7203
 Red. masses --      1.5155                 1.4191                 1.2800
 Frc consts  --      1.7461                 1.6424                 1.4860
 IR Inten    --      1.6653               100.5182                29.1158

                     91                     92                     93
                      A                      A                      A
 Frequencies --   1405.1967              1436.7396              1438.1230
 Red. masses --      1.4275                 1.3084                 1.7360
 Frc consts  --      1.6607                 1.5912                 2.1154
 IR Inten    --      3.2406                74.3679                 6.3752

                     94                     95                     96
                      A                      A                      A
 Frequencies --   1449.3716              1462.9294              1464.8984
 Red. masses --      1.1237                 1.1987                 1.3647
 Frc consts  --      1.3908                 1.5115                 1.7255
 IR Inten    --     31.4372                 2.9133                18.2629

                     97                     98                     99
                      A                      A                      A
 Frequencies --   1480.7164              1481.9281              1486.5185
 Red. masses --      1.1098                 1.0424                 1.0744
 Frc consts  --      1.4336                 1.3487                 1.3988
 IR Inten    --      1.5720                 8.0727                 0.0530

                    100                    101                    102
                      A                      A                      A
 Frequencies --   1487.1284              1494.0753              1495.2872
 Red. masses --      1.0913                 1.0718                 1.0647
 Frc consts  --      1.4220                 1.4096                 1.4026
 IR Inten    --     12.8851                 7.3335                32.7052

                    103                    104                    105
                      A                      A                      A
 Frequencies --   1498.4393              1499.2731              1501.2704
 Red. masses --      1.0577                 1.0557                 1.0906
 Frc consts  --      1.3992                 1.3982                 1.4482
 IR Inten    --     30.2096                22.0512                25.0321

                    106                    107                    108
                      A                      A                      A
 Frequencies --   1503.4597              1510.0104              1513.6058
 Red. masses --      1.0917                 1.0776                 1.1189
 Frc consts  --      1.4539                 1.4476                 1.5103
 IR Inten    --     22.0546                 8.8416                30.0179

                    109                    110                    111
                      A                      A                      A
 Frequencies --   1516.2148              1528.5679              1533.8023
 Red. masses --      1.1351                 1.0991                 1.0972
 Frc consts  --      1.5375                 1.5130                 1.5208
 IR Inten    --     13.4470                 7.8868                22.4659

                    112                    113                    114
                      A                      A                      A
 Frequencies --   1552.4645              1574.8621              1776.7542
 Red. masses --      1.1910                 2.2619                12.0603
 Frc consts  --      1.6913                 3.3053                22.4317
 IR Inten    --     20.8600               348.7355               746.4849

                    115                    116                    117
                      A                      A                      A
 Frequencies --   2752.7707              2998.8002              3019.6818
 Red. masses --      1.0832                 1.0563                 1.1055
 Frc consts  --      4.8362                 5.5967                 5.9392
 IR Inten    --   3631.0810               212.7680                95.9597

                    118                    119                    120
                      A                      A                      A
 Frequencies --   3049.7064              3053.0255              3066.9900
 Red. masses --      1.0409                 1.0405                 1.0611
 Frc consts  --      5.7040                 5.7140                 5.8810
 IR Inten    --    158.0700                50.9995                40.7054

                    121                    122                    123
                      A                      A                      A
 Frequencies --   3067.8380              3076.5534              3078.8326
 Red. masses --      1.0357                 1.0670                 1.0696
 Frc consts  --      5.7431                 5.9503                 5.9736
 IR Inten    --     22.2581                29.5626                 6.6717

                    124                    125                    126
                      A                      A                      A
 Frequencies --   3086.7415              3086.8041              3091.5290
 Red. masses --      1.0616                 1.0665                 1.0623
 Frc consts  --      5.9596                 5.9871                 5.9819
 IR Inten    --     43.3013                43.7425                16.9414

                    127                    128                    129
                      A                      A                      A
 Frequencies --   3094.1476              3096.3534              3102.0651
 Red. masses --      1.0638                 1.0671                 1.0667
 Frc consts  --      6.0006                 6.0279                 6.0478
 IR Inten    --     15.0454                85.3892                 6.9315

                    130                    131                    132
                      A                      A                      A
 Frequencies --   3103.4861              3117.2638              3118.6696
 Red. masses --      1.0936                 1.1000                 1.1006
 Frc consts  --      6.2058                 6.2977                 6.3072
 IR Inten    --      7.4658                40.6563                40.5021

                    133                    134                    135
                      A                      A                      A
 Frequencies --   3125.9575              3134.0831              3135.5013
 Red. masses --      1.1037                 1.0975                 1.1011
 Frc consts  --      6.3546                 6.3513                 6.3780
 IR Inten    --     42.1512                28.7136                92.7102

                    136                    137                    138
                      A                      A                      A
 Frequencies --   3138.5757              3141.6462              3147.2955
 Red. masses --      1.1019                 1.1020                 1.1022
 Frc consts  --      6.3954                 6.4083                 6.4325
 IR Inten    --     51.7698                51.2846                52.2668

                    139                    140                    141
                      A                      A                      A
 Frequencies --   3149.6965              3150.6046              3150.9704
 Red. masses --      1.1021                 1.1026                 1.0960
 Frc consts  --      6.4416                 6.4484                 6.4114
 IR Inten    --     47.2164                 6.8540                12.2430

                    142                    143                    144
                      A                      A                      A
 Frequencies --   3167.7164              3195.5271              3197.4828
 Red. masses --      1.1066                 1.0995                 1.0995
 Frc consts  --      6.5421                 6.6148                 6.6232
 IR Inten    --     24.2528                 7.5851                 7.2045

 - Thermochemistry -
 -------------------
 Temperature   298.150 Kelvin.  Pressure   1.00000 Atm.
 Atom     1 has atomic number  1 and mass   1.00783

 Molecular mass:   286.22564 amu.
 Principal axes and moments of inertia in atomic units:
                           1         2         3
     Eigenvalues --  2712.88259********************
           X            0.99997  -0.00478   0.00544
           Y            0.00473   0.99995   0.00916
           Z           -0.00548  -0.00913   0.99994
 This molecule is an asymmetric top.
 Rotational symmetry number  1.
 Warning -- assumption of classical behavior for rotation
           may cause significant error
 Rotational temperatures (Kelvin)      0.03193     0.00503     0.00489
 Rotational constants (GHZ):           0.66525     0.10480     0.10181
 Zero-point vibrational energy    1183314.1 (Joules/Mol)
                                  282.81885 (Kcal/Mol)
 Warning -- explicit consideration of  37 degrees of freedom as
           vibrations may cause significant error
 Vibrational temperatures:     19.25    26.16    36.51    40.16    52.67
          (Kelvin)             56.36    69.84    75.71   107.22   114.10
                              123.28   147.20   158.76   162.19   229.80
                              243.48   252.51   257.12   275.70   335.40
                              365.34   385.93   413.42   423.08   476.24
                              547.47   602.52   622.27   638.64   658.98
                              676.32   699.18   733.85   735.62   742.81
                              827.15   852.58   957.96  1076.61  1110.51
                             1139.54  1172.34  1216.30  1222.56  1276.65
                             1302.97  1321.50  1324.24  1360.02  1364.45
                             1380.72  1444.35  1452.66  1464.83  1553.17
                             1564.79  1565.25  1567.52  1576.98  1590.43
                             1608.77  1613.98  1623.65  1644.43  1653.98
                             1658.67  1660.12  1706.24  1727.33  1727.41
                             1754.81  1756.54  1785.12  1786.74  1844.68
                             1864.28  1883.41  1886.83  1892.35  1918.32
                             1927.87  1948.71  1970.49  1989.46  1991.77
                             1992.42  1997.27  2011.99  2016.51  2019.64
                             2021.76  2067.15  2069.14  2085.32  2104.83
                             2107.66  2130.42  2132.16  2138.77  2139.64
                             2149.64  2151.38  2155.92  2157.12  2159.99
                             2163.14  2172.57  2177.74  2181.49  2199.27
                             2206.80  2233.65  2265.87  2556.35  3960.62
                             4314.60  4344.64  4387.84  4392.62  4412.71
                             4413.93  4426.47  4429.75  4441.13  4441.22
                             4448.02  4451.78  4454.96  4463.17  4465.22
                             4485.04  4487.06  4497.55  4509.24  4511.28
                             4515.70  4520.12  4528.25  4531.71  4533.01
                             4533.54  4557.63  4597.64  4600.46

 Zero-point correction=                           0.450701 (Hartree/Particle)
 Thermal correction to Energy=                    0.475309
 Thermal correction to Enthalpy=                  0.476253
 Thermal correction to Gibbs Free Energy=         0.390456
 Sum of electronic and zero-point Energies=           -924.123617
 Sum of electronic and thermal Energies=              -924.099008
 Sum of electronic and thermal Enthalpies=            -924.098064
 Sum of electronic and thermal Free Energies=         -924.183861

                     E (Thermal)             CV                S
                      KCal/Mol        Cal/Mol-Kelvin    Cal/Mol-Kelvin
 Total                  298.261             86.417            180.575
 Electronic               0.000              0.000              0.000
 Translational            0.889              2.981             42.853
 Rotational               0.889              2.981             35.070
 Vibrational            296.484             80.456            102.653
 Vibration     1          0.593              1.987              7.433
 Vibration     2          0.593              1.986              6.823
 Vibration     3          0.593              1.985              6.162
 Vibration     4          0.593              1.984              5.973
 Vibration     5          0.594              1.982              5.435
 Vibration     6          0.594              1.981              5.300
 Vibration     7          0.595              1.978              4.876
 Vibration     8          0.596              1.977              4.716
 Vibration     9          0.599              1.966              4.030
 Vibration    10          0.600              1.963              3.908
 Vibration    11          0.601              1.959              3.756
 Vibration    12          0.604              1.947              3.410
 Vibration    13          0.606              1.941              3.263
 Vibration    14          0.607              1.939              3.221
 Vibration    15          0.622              1.892              2.553
 Vibration    16          0.625              1.880              2.444
 Vibration    17          0.627              1.873              2.376
 Vibration    18          0.629              1.868              2.342
 Vibration    19          0.634              1.851              2.212
 Vibration    20          0.654              1.790              1.855
 Vibration    21          0.665              1.756              1.703
 Vibration    22          0.673              1.732              1.608
 Vibration    23          0.685              1.697              1.490
 Vibration    24          0.689              1.685              1.451
 Vibration    25          0.713              1.614              1.255
 Vibration    26          0.750              1.512              1.037
 Vibration    27          0.782              1.429              0.896
 Vibration    28          0.793              1.399              0.851
 Vibration    29          0.803              1.374              0.815
 Vibration    30          0.816              1.343              0.772
 Vibration    31          0.827              1.316              0.737
 Vibration    32          0.842              1.281              0.694
 Vibration    33          0.865              1.228              0.633
 Vibration    34          0.866              1.225              0.631
 Vibration    35          0.871              1.214              0.619
 Vibration    36          0.931              1.086              0.495
 Vibration    37          0.950              1.048              0.463

 Normal termination of Gaussian 09 at Mon Nov 22 06:00:05 2021.
