 Gaussian 09, Revision D.01,
 Gaussian 09:  ES64L-G09RevD.01 24-Apr-2013

 ----------------------------------------------------------
 #p opt freq n12sx/6-311+g(d,p) scrf=(iefpcm,solvent=water)
 ----------------------------------------------------------

 -----
 TITLE
 -----
 Symbolic Z-matrix:
 Charge =  0 Multiplicity = 1

 SCF Done:  E(RN12SX) =  -818.647226364     A.U. after   15 cycles
 SCF Done:  E(RN12SX) =  -818.735617119     A.U. after   13 cycles
 SCF Done:  E(RN12SX) =  -818.809209400     A.U. after   15 cycles
 SCF Done:  E(RN12SX) =  -818.819250164     A.U. after   13 cycles
 SCF Done:  E(RN12SX) =  -818.836448208     A.U. after   13 cycles
 SCF Done:  E(RN12SX) =  -818.843014283     A.U. after   12 cycles
 SCF Done:  E(RN12SX) =  -818.848258549     A.U. after   13 cycles
 SCF Done:  E(RN12SX) =  -818.850146613     A.U. after   12 cycles
 SCF Done:  E(RN12SX) =  -818.852135433     A.U. after   13 cycles
 SCF Done:  E(RN12SX) =  -818.745228648     A.U. after   13 cycles
 SCF Done:  E(RN12SX) =  -818.873613733     A.U. after   12 cycles
 SCF Done:  E(RN12SX) =  -818.874322652     A.U. after   12 cycles
 SCF Done:  E(RN12SX) =  -818.874575989     A.U. after   12 cycles
 SCF Done:  E(RN12SX) =  -818.874620041     A.U. after   11 cycles
 SCF Done:  E(RN12SX) =  -818.874624267     A.U. after    9 cycles
 SCF Done:  E(RN12SX) =  -818.874626300     A.U. after    9 cycles
 SCF Done:  E(RN12SX) =  -818.874627026     A.U. after    8 cycles
 SCF Done:  E(RN12SX) =  -818.874627288     A.U. after    8 cycles
 SCF Done:  E(RN12SX) =  -818.874627370     A.U. after    8 cycles
 Optimization completed.
    -- Stationary point found.
 Normal termination of Gaussian 09 at Wed Jun  2 14:26:34 2021.

 ----------------------------------------------------------------------
 #P Geom=AllCheck Guess=TCheck SCRF=Check GenChk RN12SX/6-311+G(d,p) Fr
 eq
 ----------------------------------------------------------------------

 Structure from the checkpoint file:  "NHC13.chk"
 -----
 TITLE
 -----
 Charge =  0 Multiplicity = 1

                         Standard orientation:
 ---------------------------------------------------------------------
 Center     Atomic      Atomic             Coordinates (Angstroms)
 Number     Number       Type             X           Y           Z
 ---------------------------------------------------------------------
      1          7           0        1.090086    0.062834    1.096226
      2          6           0        2.311025    0.090489    0.683138
      3          7           0        2.363137    0.082712   -0.678567
      4          6           0        1.121464    0.056416   -1.218575
      5          7           0        0.377325    0.042591   -0.094403
      6          6           0        3.671788    0.152890    1.270848
      7          6           0        4.548359   -0.219392    0.055004
      8          6           0        3.722314    0.147914   -1.189622
      9          6           0       -1.034183   -0.007061   -0.043947
     10          6           0       -1.768467    1.180449   -0.012045
     11          6           0       -3.159260    1.130302    0.037929
     12          6           0       -3.787523   -0.103241    0.061087
     13          6           0       -3.074639   -1.289904    0.036618
     14          6           0       -1.683846   -1.242985   -0.012862
     15          8           0       -0.895140   -2.329653   -0.035591
     16          6           0       -1.487747   -3.613660   -0.013451
     17          8           0       -1.057421    2.319582   -0.034774
     18          6           0       -1.738768    3.558760   -0.014964
     19          1           0        3.877024    1.165153    1.618798
     20          1           0        3.803516   -0.520524    2.111755
     21          1           0        4.733709   -1.290901    0.060124
     22          1           0        5.508069    0.286056    0.066519
     23          1           0        3.932898    1.156471   -1.539712
     24          1           0        3.860680   -0.544542   -2.012858
     25          1           0       -3.744698    2.033594    0.060157
     26          1           0       -4.865992   -0.140991    0.099834
     27          1           0       -3.595934   -2.231668    0.057288
     28          1           0       -0.669108   -4.322978   -0.038699
     29          1           0       -2.067061   -3.762997    0.896524
     30          1           0       -2.125183   -3.766702   -0.882988
     31          1           0       -0.972011    4.323819   -0.041445
     32          1           0       -2.385188    3.665109   -0.884840
     33          1           0       -2.327164    3.668828    0.894729
 ---------------------------------------------------------------------

 SCF Done:  E(RN12SX) =  -818.874627370     A.U. after    1 cycles

 The electronic state is 1-A.
 Alpha  occ. eigenvalues --  -19.21349 -19.21347 -14.44245 -14.41945 -14.39081
 Alpha  occ. eigenvalues --  -10.30220 -10.30219 -10.29283 -10.27120 -10.27119
 Alpha  occ. eigenvalues --  -10.26637 -10.26570 -10.25466 -10.24186 -10.23798
 Alpha  occ. eigenvalues --  -10.23403 -10.22550 -10.22546  -1.09331  -1.07862
 Alpha  occ. eigenvalues --   -1.07768  -0.95779  -0.88048  -0.85115  -0.81684
 Alpha  occ. eigenvalues --   -0.77101  -0.75836  -0.73442  -0.71559  -0.70026
 Alpha  occ. eigenvalues --   -0.66197  -0.61191  -0.60515  -0.59695  -0.59121
 Alpha  occ. eigenvalues --   -0.55324  -0.52871  -0.52215  -0.50562  -0.50059
 Alpha  occ. eigenvalues --   -0.48229  -0.47636  -0.47468  -0.45538  -0.44991
 Alpha  occ. eigenvalues --   -0.44544  -0.44145  -0.43015  -0.41446  -0.40101
 Alpha  occ. eigenvalues --   -0.39339  -0.38770  -0.37754  -0.36877  -0.35450
 Alpha  occ. eigenvalues --   -0.35278  -0.34478  -0.33394  -0.32047  -0.31604
 Alpha  occ. eigenvalues --   -0.29144  -0.26430  -0.24322  -0.23723  -0.22826
 Alpha virt. eigenvalues --   -0.03064  -0.01177  -0.00749  -0.00655   0.00048
 Alpha virt. eigenvalues --    0.00717   0.01141   0.01301   0.01620   0.02111
 Alpha virt. eigenvalues --    0.02370   0.03010   0.03153   0.03749   0.04150

 Mulliken charges:
               1
     1  N   -0.230845
     2  C    0.493410
     3  N    0.147587
     4  C   -0.116321
     5  N    0.681669
     6  C   -0.835458
     7  C   -0.403362
     8  C   -0.280392
     9  C   -0.625672
    10  C   -0.124104
    11  C    0.103872
    12  C   -0.739759
    13  C    0.091939
    14  C   -0.130580
    15  O   -0.135757
    16  C   -0.279052
    17  O   -0.147743
    18  C   -0.281897
    19  H    0.218862
    20  H    0.215056
    21  H    0.207896
    22  H    0.199026
    23  H    0.198754
    24  H    0.200193
    25  H    0.160310
    26  H    0.167329
    27  H    0.160576
    28  H    0.189027
    29  H    0.176425
    30  H    0.176546
    31  H    0.188780
    32  H    0.176793
    33  H    0.176891
 Sum of Mulliken charges =   0.00000

 Dipole moment (field-independent basis, Debye):
    X=              1.2097    Y=             -0.0087    Z=              1.4595  Tot=              1.8957
 Quadrupole moment (field-independent basis, Debye-Ang):
   XX=            -63.0800   YY=            -80.2256   ZZ=           -115.0651
   XY=              0.4125   XZ=              0.8130   YZ=              0.0616

  Exact polarizability: 275.419   0.333 241.126  -1.841   0.075 184.306
 Approx polarizability: 302.000   1.082 273.811  -5.191   0.059 211.648

                      1                      2                      3
                      A                      A                      A
 Frequencies --     35.4956                43.1288                65.3286
 Red. masses --      3.9549                 4.3202                 3.2627
 Frc consts  --      0.0029                 0.0047                 0.0082
 IR Inten    --      2.1041                 3.7583                 3.2347

                      4                      5                      6
                      A                      A                      A
 Frequencies --     76.8071               109.6003               135.2974
 Red. masses --      4.1116                 3.5762                 2.5823
 Frc consts  --      0.0143                 0.0253                 0.0279
 IR Inten    --     21.5853                 0.0018                 0.0394

                      7                      8                      9
                      A                      A                      A
 Frequencies --    170.1236               180.7283               200.7055
 Red. masses --      3.8602                 4.5105                 1.5663
 Frc consts  --      0.0658                 0.0868                 0.0372
 IR Inten    --      1.5919                 0.6265                 0.0167

                     10                     11                     12
                      A                      A                      A
 Frequencies --    216.1528               240.6854               247.3971
 Red. masses --      2.4940                 3.2056                 1.1666
 Frc consts  --      0.0687                 0.1094                 0.0421
 IR Inten    --      6.4093                 0.5256                 0.3946

                     13                     14                     15
                      A                      A                      A
 Frequencies --    282.0394               297.8406               317.1057
 Red. masses --      1.7472                 3.3275                 4.8688
 Frc consts  --      0.0819                 0.1739                 0.2885
 IR Inten    --      0.0252                 2.0616                 3.5614

                     16                     17                     18
                      A                      A                      A
 Frequencies --    370.0351               372.1778               374.4129
 Red. masses --      5.3949                 5.2841                 4.9570
 Frc consts  --      0.4352                 0.4312                 0.4094
 IR Inten    --      8.5044                 2.5754                 0.9300

                     19                     20                     21
                      A                      A                      A
 Frequencies --    496.3773               530.7940               587.3688
 Red. masses --      4.5284                 7.7651                 3.2570
 Frc consts  --      0.6574                 1.2890                 0.6620
 IR Inten    --      0.6553                 6.5751                 1.9653

                     22                     23                     24
                      A                      A                      A
 Frequencies --    605.9723               616.3846               643.4672
 Red. masses --      4.6701                 4.7206                 4.1803
 Frc consts  --      1.0104                 1.0567                 1.0198
 IR Inten    --      0.8776                 9.2324                 0.0869

                     25                     26                     27
                      A                      A                      A
 Frequencies --    656.5643               674.2269               703.5634
 Red. masses --      3.2195                 4.5333                 6.2683
 Frc consts  --      0.8177                 1.2142                 1.8281
 IR Inten    --     32.9246                 5.5321                 3.5064

                     28                     29                     30
                      A                      A                      A
 Frequencies --    743.4718               746.5663               757.9921
 Red. masses --      3.5189                 3.8764                 1.6639
 Frc consts  --      1.1460                 1.2730                 0.5632
 IR Inten    --     40.4701                 8.8417                66.6310

                     31                     32                     33
                      A                      A                      A
 Frequencies --    802.9042               822.8233               873.3334
 Red. masses --      3.0521                 5.7970                 1.4894
 Frc consts  --      1.1592                 2.3124                 0.6693
 IR Inten    --      6.1698                43.7766                 0.0341

                     34                     35                     36
                      A                      A                      A
 Frequencies --    879.9791               907.1647               936.6318
 Red. masses --      3.0225                 1.4871                 2.1846
 Frc consts  --      1.3790                 0.7210                 1.1292
 IR Inten    --      3.3007                 0.5359                 8.4371

                     37                     38                     39
                      A                      A                      A
 Frequencies --    944.2455               974.3249               998.2514
 Red. masses --      5.5293                10.4840                 1.2968
 Frc consts  --      2.9046                 5.8639                 0.7614
 IR Inten    --      3.3508                32.6098                 0.5598

                     40                     41                     42
                      A                      A                      A
 Frequencies --   1031.1463              1060.4190              1092.0208
 Red. masses --      2.0159                 8.3215                 8.4808
 Frc consts  --      1.2629                 5.5132                 5.9587
 IR Inten    --      1.4070                42.9167                36.7977

                     43                     44                     45
                      A                      A                      A
 Frequencies --   1096.7191              1129.5355              1168.8343
 Red. masses --      1.7117                 1.8036                 2.5148
 Frc consts  --      1.2130                 1.3558                 2.0242
 IR Inten    --      0.3823                 7.2462               466.4578

                     46                     47                     48
                      A                      A                      A
 Frequencies --   1170.5326              1184.3040              1184.8777
 Red. masses --      2.9665                 1.2796                 1.2803
 Frc consts  --      2.3948                 1.0574                 1.0590
 IR Inten    --      0.1915                 1.6287                 0.7297

                     49                     50                     51
                      A                      A                      A
 Frequencies --   1202.3241              1206.5502              1217.7467
 Red. masses --      1.4224                 1.4297                 1.5826
 Frc consts  --      1.2115                 1.2263                 1.3827
 IR Inten    --      2.2768                35.6164                 8.2273

                     52                     53                     54
                      A                      A                      A
 Frequencies --   1221.8639              1224.3838              1248.9765
 Red. masses --      1.7962                 1.4944                 1.2456
 Frc consts  --      1.5800                 1.3199                 1.1448
 IR Inten    --     16.3170                24.8497                 5.4849

                     55                     56                     57
                      A                      A                      A
 Frequencies --   1268.7864              1305.2017              1319.2266
 Red. masses --      2.6224                 2.0774                 1.5318
 Frc consts  --      2.4873                 2.0851                 1.5706
 IR Inten    --      5.5932               416.3643                 3.1797

                     58                     59                     60
                      A                      A                      A
 Frequencies --   1320.9104              1353.5932              1356.0167
 Red. masses --      1.6302                 3.9686                 1.5306
 Frc consts  --      1.6759                 4.2841                 1.6582
 IR Inten    --     34.9598                31.6197                16.0198

                     61                     62                     63
                      A                      A                      A
 Frequencies --   1371.1669              1385.0077              1432.4060
 Red. masses --      8.0881                 5.1049                 3.7059
 Frc consts  --      8.9594                 5.7695                 4.4800
 IR Inten    --     60.4728                72.7042                20.9057

                     64                     65                     66
                      A                      A                      A
 Frequencies --   1458.4914              1476.7910              1477.3713
 Red. masses --      4.6239                 1.2541                 1.0968
 Frc consts  --      5.7951                 1.6114                 1.4105
 IR Inten    --     39.2756                92.5262                 6.6879

                     67                     68                     69
                      A                      A                      A
 Frequencies --   1491.3801              1495.7075              1497.8489
 Red. masses --      1.2574                 1.0430                 1.1295
 Frc consts  --      1.6477                 1.3748                 1.4930
 IR Inten    --      5.1597                18.3188                 9.1613

                     70                     71                     72
                      A                      A                      A
 Frequencies --   1498.1526              1505.4461              1507.7840
 Red. masses --      1.0409                 1.0481                 1.0660
 Frc consts  --      1.3765                 1.3996                 1.4279
 IR Inten    --     17.4485                56.9155                26.3082

                     73                     74                     75
                      A                      A                      A
 Frequencies --   1521.2090              1529.0015              1564.7747
 Red. masses --      1.1142                 2.3639                 4.4840
 Frc consts  --      1.5191                 3.2561                 6.4687
 IR Inten    --      9.1338               291.0093                51.8551

                     76                     77                     78
                      A                      A                      A
 Frequencies --   1655.9106              1663.2179              1681.0087
 Red. masses --      7.9216                 7.3353                11.7224
 Frc consts  --     12.7978                11.9555                19.5167
 IR Inten    --    103.3092               325.6637                71.1655

                     79                     80                     81
                      A                      A                      A
 Frequencies --   3066.9263              3067.6722              3096.8259
 Red. masses --      1.0332                 1.0332                 1.0681
 Frc consts  --      5.7260                 5.7286                 6.0351
 IR Inten    --     79.9663                56.2501                15.7946

                     82                     83                     84
                      A                      A                      A
 Frequencies --   3106.8016              3116.5345              3142.9151
 Red. masses --      1.0652                 1.0650                 1.1071
 Frc consts  --      6.0577                 6.0947                 6.4434
 IR Inten    --     44.5690                26.0016                39.1074

                     85                     86                     87
                      A                      A                      A
 Frequencies --   3143.4731              3166.6469              3173.4898
 Red. masses --      1.1071                 1.0970                 1.1014
 Frc consts  --      6.4455                 6.4811                 6.5357
 IR Inten    --     34.3524                11.3661                15.3124

                     88                     89                     90
                      A                      A                      A
 Frequencies --   3184.3822              3198.4338              3199.2350
 Red. masses --      1.1053                 1.1023                 1.1025
 Frc consts  --      6.6035                 6.6441                 6.6484
 IR Inten    --     27.0227                19.3528                19.4598

                     91                     92                     93
                      A                      A                      A
 Frequencies --   3228.6408              3263.0935              3269.7962
 Red. masses --      1.0896                 1.0925                 1.0935
 Frc consts  --      6.6918                 6.8535                 6.8881
 IR Inten    --     10.1450                 2.7519                 1.5271

 - Thermochemistry -
 -------------------
 Temperature   298.150 Kelvin.  Pressure   1.00000 Atm.
 Atom     1 has atomic number  7 and mass  14.00307

 Molecular mass:   245.11643 amu.
 Principal axes and moments of inertia in atomic units:
                           1         2         3
     Eigenvalues --  2719.258235791.354637795.00456
           X            1.00000  -0.00146   0.00024
           Y            0.00146   1.00000   0.00001
           Z           -0.00024  -0.00001   1.00000
 This molecule is an asymmetric top.
 Rotational symmetry number  1.
 Warning -- assumption of classical behavior for rotation
           may cause significant error
 Rotational temperatures (Kelvin)      0.03185     0.01496     0.01111
 Rotational constants (GHZ):           0.66369     0.31163     0.23153
 Zero-point vibrational energy     715600.0 (Joules/Mol)
                                  171.03251 (Kcal/Mol)
 Warning -- explicit consideration of  23 degrees of freedom as
           vibrations may cause significant error
 Vibrational temperatures:     51.07    62.05    93.99   110.51   157.69
          (Kelvin)            194.66   244.77   260.03   288.77   311.00
                              346.29   355.95   405.79   428.53   456.24
                              532.40   535.48   538.70   714.18   763.69
                              845.09   871.86   886.84   925.80   944.65
                              970.06  1012.27  1069.69  1074.14  1090.58
                             1155.20  1183.86  1256.53  1266.09  1305.21
                             1347.60  1358.56  1401.83  1436.26  1483.59
                             1525.70  1571.17  1577.93  1625.15  1681.69
                             1684.13  1703.95  1704.77  1729.87  1735.95
                             1752.06  1757.99  1761.61  1797.00  1825.50
                             1877.89  1898.07  1900.49  1947.52  1951.00
                             1972.80  1992.71  2060.91  2098.44  2124.77
                             2125.61  2145.76  2151.99  2155.07  2155.50
                             2166.00  2169.36  2188.68  2199.89  2251.36
                             2382.48  2393.00  2418.59  4412.62  4413.69
                             4455.64  4469.99  4483.99  4521.95  4522.75
                             4556.09  4565.94  4581.61  4601.83  4602.98
                             4645.29  4694.86  4704.50

 Zero-point correction=                           0.272558 (Hartree/Particle)
 Thermal correction to Energy=                    0.288271
 Thermal correction to Enthalpy=                  0.289215
 Thermal correction to Gibbs Free Energy=         0.228590
 Sum of electronic and zero-point Energies=           -818.602070
 Sum of electronic and thermal Energies=              -818.586356
 Sum of electronic and thermal Enthalpies=            -818.585412
 Sum of electronic and thermal Free Energies=         -818.646037

                     E (Thermal)             CV                S
                      KCal/Mol        Cal/Mol-Kelvin    Cal/Mol-Kelvin
 Total                  180.893             59.757            127.595
 Electronic               0.000              0.000              0.000
 Translational            0.889              2.981             42.391
 Rotational               0.889              2.981             33.173
 Vibrational            179.115             53.795             52.032
 Vibration     1          0.594              1.982              5.496
 Vibration     2          0.595              1.980              5.110
 Vibration     3          0.597              1.971              4.289
 Vibration     4          0.599              1.965              3.971
 Vibration     5          0.606              1.942              3.276
 Vibration     6          0.613              1.918              2.869
 Vibration     7          0.625              1.879              2.434
 Vibration     8          0.630              1.866              2.321
 Vibration     9          0.638              1.839              2.127
 Vibration    10          0.645              1.816              1.991
 Vibration    11          0.658              1.778              1.798
 Vibration    12          0.661              1.767              1.749
 Vibration    13          0.681              1.707              1.521
 Vibration    14          0.691              1.678              1.429
 Vibration    15          0.704              1.641              1.325
 Vibration    16          0.742              1.534              1.080
 Vibration    17          0.744              1.529              1.071
 Vibration    18          0.746              1.525              1.062
 Vibration    19          0.852              1.258              0.667
 Vibration    20          0.886              1.182              0.585
 Vibration    21          0.945              1.059              0.472
 Vibration    22          0.965              1.019              0.439
 Vibration    23          0.976              0.997              0.422

 Normal termination of Gaussian 09 at Wed Jun  2 17:54:14 2021.
