 Gaussian 09, Revision D.01,
 Gaussian 09:  ES64L-G09RevD.01 24-Apr-2013

 ----------------------------------------------------------
 #p opt freq n12sx/6-311+g(d,p) scrf=(iefpcm,solvent=water)
 ----------------------------------------------------------

 -----
 TITLE
 -----
 Symbolic Z-matrix:
 Charge =  0 Multiplicity = 1

 SCF Done:  E(RN12SX) =  -423.666700703     A.U. after   15 cycles
 SCF Done:  E(RN12SX) =  -423.705860813     A.U. after   13 cycles
 SCF Done:  E(RN12SX) =  -423.746529903     A.U. after   13 cycles
 SCF Done:  E(RN12SX) =  -423.766521221     A.U. after   12 cycles
 SCF Done:  E(RN12SX) =  -423.784138299     A.U. after   12 cycles
 SCF Done:  E(RN12SX) =  -423.794973166     A.U. after   11 cycles
 SCF Done:  E(RN12SX) =  -423.798489828     A.U. after   11 cycles
 SCF Done:  E(RN12SX) =  -423.799049165     A.U. after   10 cycles
 SCF Done:  E(RN12SX) =  -423.799356696     A.U. after   10 cycles
 SCF Done:  E(RN12SX) =  -423.799472989     A.U. after   10 cycles
 SCF Done:  E(RN12SX) =  -423.801455680     A.U. after   10 cycles
 SCF Done:  E(RN12SX) =  -423.801941628     A.U. after   10 cycles
 SCF Done:  E(RN12SX) =  -423.802223826     A.U. after   10 cycles
 SCF Done:  E(RN12SX) =  -423.802221964     A.U. after    9 cycles
 SCF Done:  E(RN12SX) =  -423.802224161     A.U. after    9 cycles
 SCF Done:  E(RN12SX) =  -423.802222856     A.U. after    8 cycles
 SCF Done:  E(RN12SX) =  -423.802223205     A.U. after    8 cycles
 SCF Done:  E(RN12SX) =  -423.802224312     A.U. after    8 cycles
 SCF Done:  E(RN12SX) =  -423.802223390     A.U. after    8 cycles
 Optimization completed.
    -- Stationary point found.
 Normal termination of Gaussian 09 at Sun Jun 20 23:18:09 2021.

 ----------------------------------------------------------------------
 #P Geom=AllCheck Guess=TCheck SCRF=Check GenChk RN12SX/6-311+G(d,p) Fr
 eq
 ----------------------------------------------------------------------

 Structure from the checkpoint file:  "NHC18.chk"
 -----
 TITLE
 -----
 Charge =  0 Multiplicity = 1

                         Standard orientation:
 ---------------------------------------------------------------------
 Center     Atomic      Atomic             Coordinates (Angstroms)
 Number     Number       Type             X           Y           Z
 ---------------------------------------------------------------------
      1          6           0        0.004617   -2.465704   -0.000380
      2          6           0        1.257414   -1.629625   -0.273160
      3          6           0        1.367745   -0.388223    0.617723
      4          6           0       -0.003056    1.626021   -0.000123
      5          1           0        0.180485   -3.122574    0.852271
      6          1           0        1.289223   -1.315568   -1.314969
      7          1           0        0.679645   -0.467942    1.457263
      8          1           0       -0.169104   -3.121968   -0.853944
      9          1           0        2.134581   -2.258766   -0.128813
     10          1           0        2.364376   -0.343356    1.048998
     11          6           0       -1.251043   -1.634415    0.273451
     12          1           0       -1.283292   -1.320641    1.315317
     13          1           0       -2.125975   -2.266814    0.129716
     14          6           0       -1.366417   -0.393361   -0.617349
     15          1           0       -0.678207   -0.470540   -1.457073
     16          1           0       -2.363313   -0.352453   -1.048399
     17          6           0        2.371374    1.683780   -0.196088
     18          1           0        2.125101    2.659227   -0.596997
     19          1           0        2.912216    1.808071    0.745160
     20          1           0        3.027242    1.171779   -0.899529
     21          6           0       -2.377671    1.675328    0.195861
     22          1           0       -2.135022    2.651493    0.597203
     23          1           0       -2.918505    1.798020   -0.745585
     24          1           0       -3.032125    1.160925    0.898870
     25          7           0        1.146308    0.926957   -0.005387
     26          7           0       -1.149894    0.922799    0.005517
 ---------------------------------------------------------------------

 SCF Done:  E(RN12SX) =  -423.802223390     A.U. after    1 cycles

 The electronic state is 1-A.
 Alpha  occ. eigenvalues --  -14.38218 -14.38215 -10.24613 -10.24612 -10.23827
 Alpha  occ. eigenvalues --  -10.23387 -10.23386 -10.21276 -10.21274 -10.21164
 Alpha  occ. eigenvalues --   -0.96820  -0.91065  -0.81121  -0.74560  -0.72009
 Alpha  occ. eigenvalues --   -0.69966  -0.66289  -0.61983  -0.57310  -0.52827
 Alpha  occ. eigenvalues --   -0.51658  -0.48978  -0.45922  -0.45393  -0.44516
 Alpha  occ. eigenvalues --   -0.42738  -0.42635  -0.39961  -0.39186  -0.37966
 Alpha  occ. eigenvalues --   -0.37329  -0.36443  -0.36092  -0.32960  -0.32784
 Alpha  occ. eigenvalues --   -0.31041  -0.29175  -0.24342  -0.17834
 Alpha virt. eigenvalues --   -0.00676  -0.00296   0.00827   0.01139   0.02168
 Alpha virt. eigenvalues --    0.02865   0.03322   0.03448   0.03813   0.04933
 Alpha virt. eigenvalues --    0.05222   0.05914   0.06505   0.06687   0.07426

 Mulliken charges:
               1
     1  C   -0.529899
     2  C   -0.100767
     3  C   -0.676009
     4  C   -0.277960
     5  H    0.180718
     6  H    0.188087
     7  H    0.183507
     8  H    0.180772
     9  H    0.178142
    10  H    0.187357
    11  C   -0.100436
    12  H    0.188067
    13  H    0.178141
    14  C   -0.676373
    15  H    0.183517
    16  H    0.187397
    17  C   -0.282475
    18  H    0.166867
    19  H    0.163036
    20  H    0.173630
    21  C   -0.282245
    22  H    0.166854
    23  H    0.163060
    24  H    0.173627
    25  N    0.041585
    26  N    0.041801
 Sum of Mulliken charges =   0.00000

 Dipole moment (field-independent basis, Debye):
    X=              0.0082    Y=             -4.3345    Z=              0.0007  Tot=              4.3345
 Quadrupole moment (field-independent basis, Debye-Ang):
   XX=            -54.1156   YY=            -71.9350   ZZ=            -63.0686
   XY=              0.0335   XZ=              0.8752   YZ=              0.0029

  Exact polarizability: 165.689   0.016 154.723   3.524   0.002 122.199
 Approx polarizability: 173.799   0.035 153.836   3.300   0.003 139.214

                      1                      2                      3
                      A                      A                      A
 Frequencies --     74.3767               108.0727               148.8063
 Red. masses --      2.5505                 2.1931                 1.3026
 Frc consts  --      0.0083                 0.0151                 0.0170
 IR Inten    --      0.0583                 2.5769                 1.0223

                      4                      5                      6
                      A                      A                      A
 Frequencies --    152.6207               170.1251               210.8345
 Red. masses --      1.0970                 2.1801                 1.8158
 Frc consts  --      0.0151                 0.0372                 0.0476
 IR Inten    --      0.0999                 7.7572                13.0281

                      7                      8                      9
                      A                      A                      A
 Frequencies --    238.8154               262.1117               286.5722
 Red. masses --      2.5076                 2.7915                 3.1161
 Frc consts  --      0.0843                 0.1130                 0.1508
 IR Inten    --      2.7407                 1.4684                 9.0678

                     10                     11                     12
                      A                      A                      A
 Frequencies --    377.2590               409.6118               435.8449
 Red. masses --      2.4204                 3.9144                 3.6237
 Frc consts  --      0.2030                 0.3870                 0.4056
 IR Inten    --      0.0128                42.6429                 6.5556

                     13                     14                     15
                      A                      A                      A
 Frequencies --    469.9697               504.2769               514.0826
 Red. masses --      2.2984                 2.5979                 2.1437
 Frc consts  --      0.2991                 0.3892                 0.3338
 IR Inten    --      0.1649                42.9259                 0.7517

                     16                     17                     18
                      A                      A                      A
 Frequencies --    587.4084               746.3098               782.9014
 Red. masses --      3.0488                 1.2974                 2.5183
 Frc consts  --      0.6198                 0.4258                 0.9094
 IR Inten    --      3.1573                 6.1763                 0.4236

                     19                     20                     21
                      A                      A                      A
 Frequencies --    845.5259               877.4376               916.4708
 Red. masses --      2.5453                 3.8568                 2.2944
 Frc consts  --      1.0721                 1.7495                 1.1354
 IR Inten    --     16.5496                 8.3210                46.8376

                     22                     23                     24
                      A                      A                      A
 Frequencies --    945.6000              1009.1730              1012.8672
 Red. masses --      1.8235                 1.9778                 2.0734
 Frc consts  --      0.9606                 1.1867                 1.2532
 IR Inten    --      2.8903                 5.6999                 7.6203

                     25                     26                     27
                      A                      A                      A
 Frequencies --   1072.4555              1082.1377              1095.2360
 Red. masses --      1.8993                 2.2789                 2.1554
 Frc consts  --      1.2870                 1.5723                 1.5233
 IR Inten    --      1.6955                 1.0811                25.5182

                     28                     29                     30
                      A                      A                      A
 Frequencies --   1120.8452              1138.6617              1153.2027
 Red. masses --      2.3609                 1.7446                 1.3324
 Frc consts  --      1.7475                 1.3327                 1.0440
 IR Inten    --      4.9437                46.9001                 0.0259

                     31                     32                     33
                      A                      A                      A
 Frequencies --   1153.9725              1199.4116              1210.5168
 Red. masses --      1.3372                 1.3390                 2.8546
 Frc consts  --      1.0492                 1.1349                 2.4645
 IR Inten    --      3.7457                 5.8900                41.8476

                     34                     35                     36
                      A                      A                      A
 Frequencies --   1239.3910              1242.0291              1303.3554
 Red. masses --      1.3003                 1.6824                 1.4599
 Frc consts  --      1.1768                 1.5292                 1.4611
 IR Inten    --     17.2908                20.8433                29.1293

                     37                     38                     39
                      A                      A                      A
 Frequencies --   1307.1122              1323.5363              1348.1694
 Red. masses --      1.3422                 1.7091                 1.4648
 Frc consts  --      1.3511                 1.7640                 1.5686
 IR Inten    --     27.5854                23.4364                73.6436

                     40                     41                     42
                      A                      A                      A
 Frequencies --   1380.8488              1385.1679              1393.8153
 Red. masses --      1.3930                 1.3951                 1.4470
 Frc consts  --      1.5649                 1.5771                 1.6562
 IR Inten    --      4.6649                 0.7091               121.0108

                     43                     44                     45
                      A                      A                      A
 Frequencies --   1401.1735              1425.5901              1427.4877
 Red. masses --      1.4209                 1.2853                 1.7252
 Frc consts  --      1.6436                 1.5390                 2.0712
 IR Inten    --      2.6130                62.2613                 0.0661

                     46                     47                     48
                      A                      A                      A
 Frequencies --   1452.5016              1474.2486              1485.5909
 Red. masses --      1.1986                 1.1748                 1.0734
 Frc consts  --      1.4899                 1.5043                 1.3958
 IR Inten    --      3.0312                20.4746                 0.2169

                     49                     50                     51
                      A                      A                      A
 Frequencies --   1488.6607              1490.7357              1491.1690
 Red. masses --      1.1052                 1.0421                 1.0482
 Frc consts  --      1.4431                 1.3645                 1.3732
 IR Inten    --     48.0405                36.1007                 4.5768

                     52                     53                     54
                      A                      A                      A
 Frequencies --   1498.2946              1507.6470              1510.3404
 Red. masses --      1.0836                 1.0797                 1.1285
 Frc consts  --      1.4332                 1.4460                 1.5167
 IR Inten    --     25.7081                 1.0554                15.3009

                     55                     56                     57
                      A                      A                      A
 Frequencies --   1510.6574              1553.8373              3041.5888
 Red. masses --      1.1067                 1.8023                 1.0435
 Frc consts  --      1.4880                 2.5638                 5.6879
 IR Inten    --     41.6053               268.3902               218.7124

                     58                     59                     60
                      A                      A                      A
 Frequencies --   3043.8501              3067.0519              3083.3101
 Red. masses --      1.0435                 1.0609                 1.0649
 Frc consts  --      5.6963                 5.8797                 5.9646
 IR Inten    --     16.1437                40.4593                49.5704

                     61                     62                     63
                      A                      A                      A
 Frequencies --   3087.6599              3091.8099              3098.5743
 Red. masses --      1.0618                 1.0666                 1.0626
 Frc consts  --      5.9643                 6.0073                 6.0111
 IR Inten    --     21.8743                91.6548                12.7275

                     64                     65                     66
                      A                      A                      A
 Frequencies --   3102.7523              3113.0110              3113.0679
 Red. masses --      1.0981                 1.0973                 1.0972
 Frc consts  --      6.2283                 6.2651                 6.2647
 IR Inten    --      8.1987                67.7726                24.0920

                     67                     68                     69
                      A                      A                      A
 Frequencies --   3121.3550              3132.1293              3141.4505
 Red. masses --      1.1037                 1.1012                 1.1032
 Frc consts  --      6.3355                 6.3650                 6.4143
 IR Inten    --     47.0992               112.1194                65.3345

                     70                     71                     72
                      A                      A                      A
 Frequencies --   3144.2749              3194.9506              3195.1987
 Red. masses --      1.1035                 1.0987                 1.0988
 Frc consts  --      6.4277                 6.6080                 6.6094
 IR Inten    --      2.9448                11.3324                19.4485

 - Thermochemistry -
 -------------------
 Temperature   298.150 Kelvin.  Pressure   1.00000 Atm.
 Atom     1 has atomic number  6 and mass  12.00000

 Molecular mass:   140.13135 amu.
 Principal axes and moments of inertia in atomic units:
                           1         2         3
     Eigenvalues --  1243.861801254.085002306.40092
           X            0.99998   0.00625  -0.00115
           Y           -0.00625   0.99998   0.00000
           Z            0.00115   0.00001   1.00000
 This molecule is an asymmetric top.
 Rotational symmetry number  1.
 Warning -- assumption of classical behavior for rotation
           may cause significant error
 Rotational temperatures (Kelvin)      0.06963     0.06907     0.03755
 Rotational constants (GHZ):           1.45092     1.43909     0.78249
 Zero-point vibrational energy     626406.0 (Joules/Mol)
                                  149.71463 (Kcal/Mol)
 Warning -- explicit consideration of  16 degrees of freedom as
           vibrations may cause significant error
 Vibrational temperatures:    107.01   155.49   214.10   219.59   244.77
          (Kelvin)            303.34   343.60   377.12   412.31   542.79
                              589.34   627.08   676.18   725.54   739.65
                              845.15  1073.77  1126.42  1216.52  1262.44
                             1318.60  1360.51  1451.97  1457.29  1543.02
                             1556.95  1575.80  1612.64  1638.28  1659.20
                             1660.31  1725.68  1741.66  1783.20  1787.00
                             1875.24  1880.64  1904.27  1939.71  1986.73
                             1992.95  2005.39  2015.97  2051.10  2053.83
                             2089.82  2121.11  2137.43  2141.85  2144.83
                             2145.46  2155.71  2169.17  2173.04  2173.50
                             2235.62  4376.16  4379.42  4412.80  4436.19
                             4442.45  4448.42  4458.15  4464.16  4478.92
                             4479.00  4490.93  4506.43  4519.84  4523.90
                             4596.82  4597.17

 Zero-point correction=                           0.238585 (Hartree/Particle)
 Thermal correction to Energy=                    0.249363
 Thermal correction to Enthalpy=                  0.250308
 Thermal correction to Gibbs Free Energy=         0.202838
 Sum of electronic and zero-point Energies=           -423.563638
 Sum of electronic and thermal Energies=              -423.552860
 Sum of electronic and thermal Enthalpies=            -423.551916
 Sum of electronic and thermal Free Energies=         -423.599385

                     E (Thermal)             CV                S
                      KCal/Mol        Cal/Mol-Kelvin    Cal/Mol-Kelvin
 Total                  156.478             40.632             99.907
 Electronic               0.000              0.000              0.000
 Translational            0.889              2.981             40.724
 Rotational               0.889              2.981             29.666
 Vibrational            154.700             34.671             29.518
 Vibration     1          0.599              1.966              4.034
 Vibration     2          0.606              1.943              3.303
 Vibration     3          0.618              1.904              2.687
 Vibration     4          0.619              1.900              2.639
 Vibration     5          0.625              1.879              2.434
 Vibration     6          0.643              1.824              2.036
 Vibration     7          0.657              1.781              1.812
 Vibration     8          0.669              1.742              1.648
 Vibration     9          0.684              1.699              1.494
 Vibration    10          0.748              1.519              1.050
 Vibration    11          0.774              1.449              0.928
 Vibration    12          0.796              1.392              0.840
 Vibration    13          0.827              1.317              0.738
 Vibration    14          0.860              1.241              0.648
 Vibration    15          0.869              1.219              0.624
 Vibration    16          0.945              1.059              0.472

 Normal termination of Gaussian 09 at Sun Jun 20 23:32:17 2021.
