 Gaussian 09, Revision D.01,
 Gaussian 09:  ES64L-G09RevD.01 24-Apr-2013

 ----------------------------------------------------------
 #p opt freq n12sx/6-311+g(d,p) scrf=(iefpcm,solvent=water)
 ----------------------------------------------------------

 -----
 TITLE
 -----
 Symbolic Z-matrix:
 Charge =  0 Multiplicity = 1

 SCF Done:  E(RN12SX) =  -595.683843814     A.U. after   14 cycles
 SCF Done:  E(RN12SX) =  -595.799976213     A.U. after   12 cycles
 SCF Done:  E(RN12SX) =  -595.810199483     A.U. after   13 cycles
 SCF Done:  E(RN12SX) =  -595.861024502     A.U. after   12 cycles
 SCF Done:  E(RN12SX) =  -595.874147953     A.U. after   12 cycles
 SCF Done:  E(RN12SX) =  -595.877083674     A.U. after   12 cycles
 SCF Done:  E(RN12SX) =  -595.877978690     A.U. after   11 cycles
 SCF Done:  E(RN12SX) =  -595.878186577     A.U. after   10 cycles
 SCF Done:  E(RN12SX) =  -595.878290334     A.U. after   10 cycles
 SCF Done:  E(RN12SX) =  -595.878356888     A.U. after   10 cycles
 SCF Done:  E(RN12SX) =  -595.891711176     A.U. after   11 cycles
 SCF Done:  E(RN12SX) =  -595.891878404     A.U. after   10 cycles
 SCF Done:  E(RN12SX) =  -595.891906390     A.U. after   10 cycles
 SCF Done:  E(RN12SX) =  -595.891911693     A.U. after   10 cycles
 SCF Done:  E(RN12SX) =  -595.891915590     A.U. after    8 cycles
 SCF Done:  E(RN12SX) =  -595.891917456     A.U. after    8 cycles
 SCF Done:  E(RN12SX) =  -595.891918084     A.U. after    7 cycles
 SCF Done:  E(RN12SX) =  -595.891918342     A.U. after    7 cycles
 SCF Done:  E(RN12SX) =  -595.891918389     A.U. after    7 cycles
 Optimization completed.
    -- Stationary point found.
 Normal termination of Gaussian 09 at Wed Jun  2 09:32:27 2021.

 ----------------------------------------------------------------------
 #P Geom=AllCheck Guess=TCheck SCRF=Check GenChk RN12SX/6-311+G(d,p) Fr
 eq
 ----------------------------------------------------------------------

 Structure from the checkpoint file:  "NHC12.chk"
 -----
 TITLE
 -----
 Charge =  0 Multiplicity = 1

                         Standard orientation:
 ---------------------------------------------------------------------
 Center     Atomic      Atomic             Coordinates (Angstroms)
 Number     Number       Type             X           Y           Z
 ---------------------------------------------------------------------
      1          7           0        0.747802    1.327529    0.010889
      2          6           0       -0.546498    1.269365   -0.003754
      3          7           0       -0.950802   -0.050134   -0.037403
      4          6           0        0.150934   -0.862705   -0.037675
      5          7           0        1.148973    0.023963   -0.013053
      6          6           0       -1.377564    2.498520   -0.008139
      7          6           0       -2.344847   -0.567881    0.003804
      8          6           0       -3.192037    0.103922   -1.075194
      9          6           0       -2.924819   -0.319861    1.395147
     10          6           0       -2.330567   -2.067535   -0.265544
     11          6           0        2.600204   -0.246015   -0.001381
     12          6           0        2.841066   -1.745596   -0.042464
     13          6           0        3.187646    0.342424    1.278601
     14          6           0        3.222552    0.415966   -1.227812
     15          1           0       -0.735990    3.341353    0.226890
     16          1           0       -1.821675    2.673524   -0.985605
     17          1           0       -2.179376    2.462185    0.722911
     18          1           0       -2.714183    0.015117   -2.048947
     19          1           0       -4.158049   -0.393022   -1.126187
     20          1           0       -3.378912    1.152884   -0.872711
     21          1           0       -2.324934   -0.824282    2.149946
     22          1           0       -3.938155   -0.712800    1.445167
     23          1           0       -2.967325    0.737721    1.641740
     24          1           0       -3.357260   -2.427067   -0.241039
     25          1           0       -1.908155   -2.288779   -1.242296
     26          1           0       -1.752267   -2.602358    0.480180
     27          1           0        2.425049   -2.189890   -0.942537
     28          1           0        3.914701   -1.922219   -0.032552
     29          1           0        2.399759   -2.242752    0.816844
     30          1           0        3.008770    1.413066    1.328837
     31          1           0        4.261371    0.169623    1.304663
     32          1           0        2.743512   -0.126543    2.154890
     33          1           0        4.295828    0.238481   -1.236839
     34          1           0        2.799145    0.003867   -2.142095
     35          1           0        3.049927    1.488758   -1.217824
 ---------------------------------------------------------------------

 SCF Done:  E(RN12SX) =  -595.891918389     A.U. after    1 cycles

 The electronic state is 1-A.
 Alpha  occ. eigenvalues --  -14.42712 -14.41351 -14.37954 -10.29318 -10.28086
 Alpha  occ. eigenvalues --  -10.27463 -10.23694 -10.22654 -10.20969 -10.20928
 Alpha  occ. eigenvalues --  -10.20478 -10.20472 -10.20387 -10.20386  -1.07920
 Alpha  occ. eigenvalues --   -0.93838  -0.86615  -0.81335  -0.79472  -0.73020
 Alpha  occ. eigenvalues --   -0.69758  -0.69404  -0.69209  -0.69118  -0.65093
 Alpha  occ. eigenvalues --   -0.60297  -0.56662  -0.54618  -0.49571  -0.48567
 Alpha  occ. eigenvalues --   -0.47239  -0.44991  -0.44306  -0.44151  -0.43729
 Alpha  occ. eigenvalues --   -0.42280  -0.41058  -0.40872  -0.39330  -0.38611
 Alpha  occ. eigenvalues --   -0.38219  -0.37955  -0.37490  -0.36459  -0.36352
 Alpha  occ. eigenvalues --   -0.36179  -0.34718  -0.33787  -0.33423  -0.33370
 Alpha  occ. eigenvalues --   -0.30859  -0.28119  -0.25312  -0.21983
 Alpha virt. eigenvalues --   -0.00664   0.00363   0.00466   0.00776   0.01206
 Alpha virt. eigenvalues --    0.01908   0.02182   0.02307   0.02747   0.03217
 Alpha virt. eigenvalues --    0.04309   0.04504   0.04776   0.05011   0.05704

 Mulliken charges:
               1
     1  N   -0.220636
     2  C    0.180061
     3  N    0.455903
     4  C   -0.095930
     5  N    0.588958
     6  C   -0.854088
     7  C   -0.672815
     8  C   -0.384355
     9  C   -0.344067
    10  C   -0.479776
    11  C   -0.608763
    12  C   -0.460626
    13  C   -0.408268
    14  C   -0.418671
    15  H    0.193765
    16  H    0.210458
    17  H    0.199481
    18  H    0.178027
    19  H    0.178051
    20  H    0.169541
    21  H    0.174757
    22  H    0.178457
    23  H    0.158265
    24  H    0.175924
    25  H    0.176063
    26  H    0.182098
    27  H    0.171120
    28  H    0.174581
    29  H    0.172013
    30  H    0.176109
    31  H    0.172404
    32  H    0.166183
    33  H    0.172714
    34  H    0.166278
    35  H    0.176785
 Sum of Mulliken charges =   0.00000

 Dipole moment (field-independent basis, Debye):
    X=             -2.6547    Y=              1.6495    Z=              0.0482  Tot=              3.1258
 Quadrupole moment (field-independent basis, Debye-Ang):
   XX=            -72.5700   YY=            -90.5795   ZZ=            -87.5805
   XY=             -3.9699   XZ=              0.0073   YZ=             -0.3130

  Exact polarizability: 220.170  -2.164 200.743   0.416   0.204 167.015
 Approx polarizability: 234.099  -0.214 218.638   0.371   0.314 184.361

                      1                      2                      3
                      A                      A                      A
 Frequencies --     29.6725                47.3828               104.9273
 Red. masses --      2.7923                 2.9656                 3.0596
 Frc consts  --      0.0014                 0.0039                 0.0198
 IR Inten    --      0.0768                 0.2776                 8.9139

                      4                      5                      6
                      A                      A                      A
 Frequencies --    139.6969               145.8041               175.6642
 Red. masses --      2.8350                 2.7483                 1.1969
 Frc consts  --      0.0326                 0.0344                 0.0218
 IR Inten    --      3.8438                 0.7375                 0.0691

                      7                      8                      9
                      A                      A                      A
 Frequencies --    202.5179               223.3391               248.6250
 Red. masses --      1.3567                 1.0277                 1.1511
 Frc consts  --      0.0328                 0.0302                 0.0419
 IR Inten    --      1.2830                 0.2035                 0.1512

                     10                     11                     12
                      A                      A                      A
 Frequencies --    254.8071               262.8018               273.7546
 Red. masses --      2.4806                 2.3940                 1.1736
 Frc consts  --      0.0949                 0.0974                 0.0518
 IR Inten    --      1.1999                 0.0513                 0.0740

                     13                     14                     15
                      A                      A                      A
 Frequencies --    282.1316               291.6827               298.7321
 Red. masses --      1.1824                 1.2518                 1.4662
 Frc consts  --      0.0555                 0.0627                 0.0771
 IR Inten    --      0.2739                 0.4163                 0.1078

                     16                     17                     18
                      A                      A                      A
 Frequencies --    316.2295               339.7765               348.8168
 Red. masses --      1.9943                 2.5403                 2.3306
 Frc consts  --      0.1175                 0.1728                 0.1671
 IR Inten    --      1.6343                 1.5714                 3.6156

                     19                     20                     21
                      A                      A                      A
 Frequencies --    370.3999               384.5254               400.7683
 Red. masses --      2.3936                 2.3346                 2.5693
 Frc consts  --      0.1935                 0.2034                 0.2431
 IR Inten    --      0.7524                 0.9812                 5.6595

                     22                     23                     24
                      A                      A                      A
 Frequencies --    443.1286               462.6231               499.9550
 Red. masses --      2.8631                 2.7643                 3.7037
 Frc consts  --      0.3312                 0.3486                 0.5454
 IR Inten    --      7.5722                 0.7855                 1.0353

                     25                     26                     27
                      A                      A                      A
 Frequencies --    571.7958               590.8484               621.7218
 Red. masses --      2.7406                 3.3857                 3.7111
 Frc consts  --      0.5279                 0.6964                 0.8452
 IR Inten    --      3.2086                 0.7609                31.3516

                     28                     29                     30
                      A                      A                      A
 Frequencies --    682.9752               724.2139               744.0732
 Red. masses --      8.4671                 5.5721                 4.5310
 Frc consts  --      2.3270                 1.7219                 1.4780
 IR Inten    --      0.2130                 2.6191                 7.8997

                     31                     32                     33
                      A                      A                      A
 Frequencies --    840.9191               861.3639               942.0843
 Red. masses --      2.5826                 2.4869                 1.6511
 Frc consts  --      1.0760                 1.0871                 0.8634
 IR Inten    --      0.2300                12.0411                 0.8683

                     34                     35                     36
                      A                      A                      A
 Frequencies --    943.3800               949.2159               951.6240
 Red. masses --      1.6275                 1.5858                 1.5434
 Frc consts  --      0.8534                 0.8418                 0.8235
 IR Inten    --      0.8755                 2.8353                 3.4728

                     37                     38                     39
                      A                      A                      A
 Frequencies --    969.7850               970.3123              1019.1281
 Red. masses --      1.2053                 1.2020                 5.2220
 Frc consts  --      0.6679                 0.6668                 3.1955
 IR Inten    --      0.1360                 0.0083                11.9018

                     40                     41                     42
                      A                      A                      A
 Frequencies --   1025.4009              1050.5910              1054.6343
 Red. masses --      1.5331                 1.4872                 1.4778
 Frc consts  --      0.9497                 0.9671                 0.9684
 IR Inten    --      2.1319                 0.0930                 0.2089

                     43                     44                     45
                      A                      A                      A
 Frequencies --   1055.3687              1056.3900              1067.1405
 Red. masses --      1.4024                 1.4801                 1.5314
 Frc consts  --      0.9203                 0.9732                 1.0275
 IR Inten    --      0.7396                 1.5802                 8.8415

                     46                     47                     48
                      A                      A                      A
 Frequencies --   1150.1100              1187.5021              1227.7483
 Red. masses --      3.8622                 3.5983                 3.2580
 Frc consts  --      3.0100                 2.9896                 2.8935
 IR Inten    --     22.3519                19.0545                34.0693

                     49                     50                     51
                      A                      A                      A
 Frequencies --   1249.7179              1264.5392              1265.7343
 Red. masses --      2.9776                 2.8695                 2.8973
 Frc consts  --      2.7399                 2.7034                 2.7348
 IR Inten    --    112.2096                 2.6811                38.3068

                     52                     53                     54
                      A                      A                      A
 Frequencies --   1278.3410              1310.4352              1324.8640
 Red. masses --      3.3027                 3.7627                 5.8441
 Frc consts  --      3.1799                 3.8070                 6.0438
 IR Inten    --     40.9618                35.3752                43.1704

                     55                     56                     57
                      A                      A                      A
 Frequencies --   1391.1165              1395.5411              1398.8173
 Red. masses --      1.9727                 1.2733                 1.3056
 Frc consts  --      2.2493                 1.4611                 1.5051
 IR Inten    --     75.7696                21.9799                19.5720

                     58                     59                     60
                      A                      A                      A
 Frequencies --   1401.1652              1402.7206              1419.2714
 Red. masses --      1.3255                 1.2754                 1.4552
 Frc consts  --      1.5332                 1.4786                 1.7270
 IR Inten    --     24.4957                19.1913                42.9866

                     61                     62                     63
                      A                      A                      A
 Frequencies --   1423.5174              1431.5003              1440.1467
 Red. masses --      1.5663                 1.5903                 3.1441
 Frc consts  --      1.8701                 1.9200                 3.8420
 IR Inten    --    102.0951                15.2928                 5.4066

                     64                     65                     66
                      A                      A                      A
 Frequencies --   1470.6569              1471.1768              1474.9600
 Red. masses --      1.0475                 1.0567                 1.0499
 Frc consts  --      1.3348                 1.3475                 1.3457
 IR Inten    --      0.6210                 0.8799                11.6002

                     67                     68                     69
                      A                      A                      A
 Frequencies --   1479.5717              1480.8281              1482.2899
 Red. masses --      1.0473                 1.0507                 1.0600
 Frc consts  --      1.3509                 1.3575                 1.3722
 IR Inten    --      0.4424                 2.1164                 0.4670

                     70                     71                     72
                      A                      A                      A
 Frequencies --   1483.5688              1486.7998              1493.1491
 Red. masses --      1.0454                 1.1135                 1.0556
 Frc consts  --      1.3557                 1.4502                 1.3866
 IR Inten    --      1.3821                17.1325                 8.7390

                     73                     74                     75
                      A                      A                      A
 Frequencies --   1496.9957              1501.1112              1508.3885
 Red. masses --      1.0791                 1.0654                 1.0789
 Frc consts  --      1.4248                 1.4145                 1.4463
 IR Inten    --     12.2321                15.6664                10.0544

                     76                     77                     78
                      A                      A                      A
 Frequencies --   1515.6500              1519.9368              1646.4720
 Red. masses --      1.0899                 1.0663                 8.5666
 Frc consts  --      1.4751                 1.4514                13.6825
 IR Inten    --     12.7395                 9.8241                77.3874

                     79                     80                     81
                      A                      A                      A
 Frequencies --   3076.1180              3079.1390              3081.0944
 Red. masses --      1.0351                 1.0355                 1.0354
 Frc consts  --      5.7710                 5.7843                 5.7913
 IR Inten    --     41.9502                14.5146                33.1723

                     82                     83                     84
                      A                      A                      A
 Frequencies --   3084.6289              3086.8118              3090.3187
 Red. masses --      1.0372                 1.0363                 1.0381
 Frc consts  --      5.8148                 5.8180                 5.8410
 IR Inten    --     17.1099                23.5440                19.9390

                     85                     86                     87
                      A                      A                      A
 Frequencies --   3095.7151              3155.3565              3156.9113
 Red. masses --      1.0391                 1.1030                 1.1024
 Frc consts  --      5.8670                 6.4702                 6.4733
 IR Inten    --     22.1258                16.2060                20.8273

                     88                     89                     90
                      A                      A                      A
 Frequencies --   3158.3970              3159.7137              3163.6626
 Red. masses --      1.1025                 1.1028                 1.1018
 Frc consts  --      6.4798                 6.4869                 6.4974
 IR Inten    --      2.8908                14.8381                14.4469

                     91                     92                     93
                      A                      A                      A
 Frequencies --   3164.6234              3165.4233              3169.3489
 Red. masses --      1.1017                 1.1016                 1.1031
 Frc consts  --      6.5007                 6.5035                 6.5281
 IR Inten    --    106.8088                49.1150                 1.4861

                     94                     95                     96
                      A                      A                      A
 Frequencies --   3170.0932              3173.1651              3173.5130
 Red. masses --      1.0993                 1.1030                 1.1023
 Frc consts  --      6.5091                 6.5437                 6.5411
 IR Inten    --     35.7194                31.6497                54.1008

                     97                     98                     99
                      A                      A                      A
 Frequencies --   3185.7527              3188.7624              3193.5752
 Red. masses --      1.1017                 1.1005                 1.1006
 Frc consts  --      6.5877                 6.5930                 6.6135
 IR Inten    --     26.2576                23.8618                10.5321

 - Thermochemistry -
 -------------------
 Temperature   298.150 Kelvin.  Pressure   1.00000 Atm.
 Atom     1 has atomic number  7 and mass  14.00307

 Molecular mass:   195.17355 amu.
 Principal axes and moments of inertia in atomic units:
                           1         2         3
     Eigenvalues --  1433.413934105.993424736.54320
           X            0.99999  -0.00448   0.00002
           Y            0.00448   0.99999  -0.00057
           Z           -0.00001   0.00057   1.00000
 This molecule is an asymmetric top.
 Rotational symmetry number  1.
 Warning -- assumption of classical behavior for rotation
           may cause significant error
 Rotational temperatures (Kelvin)      0.06042     0.02109     0.01829
 Rotational constants (GHZ):           1.25905     0.43954     0.38102
 Zero-point vibrational energy     823552.3 (Joules/Mol)
                                  196.83373 (Kcal/Mol)
 Warning -- explicit consideration of  26 degrees of freedom as
           vibrations may cause significant error
 Vibrational temperatures:     42.69    68.17   150.97   200.99   209.78
          (Kelvin)            252.74   291.38   321.33   357.72   366.61
                              378.11   393.87   405.92   419.67   429.81
                              454.98   488.86   501.87   532.92   553.25
                              576.62   637.56   665.61   719.32   822.69
                              850.10   894.52   982.65  1041.98  1070.55
                             1209.89  1239.31  1355.45  1357.31  1365.71
                             1369.17  1395.30  1396.06  1466.30  1475.32
                             1511.56  1517.38  1518.44  1519.91  1535.38
                             1654.75  1708.55  1766.45  1798.06  1819.39
                             1821.11  1839.25  1885.42  1906.18  2001.50
                             2007.87  2012.58  2015.96  2018.20  2042.01
                             2048.12  2059.61  2072.05  2115.94  2116.69
                             2122.14  2128.77  2130.58  2132.68  2134.52
                             2139.17  2148.31  2153.84  2159.76  2170.23
                             2180.68  2186.85  2368.90  4425.84  4430.19
                             4433.00  4438.09  4441.23  4446.27  4454.04
                             4539.85  4542.09  4544.22  4546.12  4551.80
                             4553.18  4554.33  4559.98  4561.05  4565.47
                             4565.97  4583.58  4587.91  4594.84

 Zero-point correction=                           0.313675 (Hartree/Particle)
 Thermal correction to Energy=                    0.329668
 Thermal correction to Enthalpy=                  0.330612
 Thermal correction to Gibbs Free Energy=         0.271692
 Sum of electronic and zero-point Energies=           -595.578244
 Sum of electronic and thermal Energies=              -595.562250
 Sum of electronic and thermal Enthalpies=            -595.561306
 Sum of electronic and thermal Free Energies=         -595.620227

                     E (Thermal)             CV                S
                      KCal/Mol        Cal/Mol-Kelvin    Cal/Mol-Kelvin
 Total                  206.870             61.720            124.008
 Electronic               0.000              0.000              0.000
 Translational            0.889              2.981             41.711
 Rotational               0.889              2.981             31.700
 Vibrational            205.092             55.759             50.597
 Vibration     1          0.593              1.984              5.851
 Vibration     2          0.595              1.979              4.924
 Vibration     3          0.605              1.945              3.361
 Vibration     4          0.615              1.914              2.808
 Vibration     5          0.617              1.907              2.726
 Vibration     6          0.628              1.872              2.374
 Vibration     7          0.639              1.836              2.110
 Vibration     8          0.649              1.806              1.932
 Vibration     9          0.662              1.765              1.740
 Vibration    10          0.665              1.755              1.697
 Vibration    11          0.670              1.741              1.643
 Vibration    12          0.676              1.722              1.572
 Vibration    13          0.681              1.707              1.521
 Vibration    14          0.687              1.689              1.464
 Vibration    15          0.692              1.676              1.424
 Vibration    16          0.703              1.643              1.330
 Vibration    17          0.720              1.596              1.213
 Vibration    18          0.726              1.578              1.172
 Vibration    19          0.742              1.533              1.078
 Vibration    20          0.753              1.503              1.021
 Vibration    21          0.767              1.468              0.960
 Vibration    22          0.803              1.376              0.817
 Vibration    23          0.820              1.333              0.759
 Vibration    24          0.855              1.250              0.658
 Vibration    25          0.928              1.092              0.501
 Vibration    26          0.948              1.051              0.466

 Optimization completed.
    -- Stationary point found.
 Normal termination of Gaussian 09 at Wed Jun  2 12:03:29 2021.
