 Gaussian 09, Revision D.01,
 Gaussian 09:  ES64L-G09RevD.01 24-Apr-2013

 ----------------------------------------------------------
 #p opt freq n12sx/6-311+g(d,p) scrf=(iefpcm,solvent=water)
 ----------------------------------------------------------

 -----
 TITLE
 -----
 Symbolic Z-matrix:
 Charge =  0 Multiplicity = 1

 SCF Done:  E(RN12SX) =  -1060.30724449     A.U. after   16 cycles
 SCF Done:  E(RN12SX) =  -1060.30730249     A.U. after   13 cycles
 SCF Done:  E(RN12SX) =  -1060.30759471     A.U. after   14 cycles
 SCF Done:  E(RN12SX) =  -1060.30897504     A.U. after   14 cycles
 SCF Done:  E(RN12SX) =  -1060.30837821     A.U. after   14 cycles
 SCF Done:  E(RN12SX) =  -1060.30754013     A.U. after   14 cycles
 SCF Done:  E(RN12SX) =  -1060.30941567     A.U. after   11 cycles
 SCF Done:  E(RN12SX) =  -1060.30950594     A.U. after   13 cycles
 SCF Done:  E(RN12SX) =  -1060.30974491     A.U. after   12 cycles
 SCF Done:  E(RN12SX) =  -1060.30975256     A.U. after   11 cycles
 SCF Done:  E(RN12SX) =  -1060.30975186     A.U. after   11 cycles
 SCF Done:  E(RN12SX) =  -1060.30975408     A.U. after   11 cycles
 Optimization completed.
    -- Stationary point found.
 Normal termination of Gaussian 09 at Mon Jun 21 11:11:48 2021.

 ----------------------------------------------------------------------
 #P Geom=AllCheck Guess=TCheck SCRF=Check GenChk RN12SX/6-311+G(d,p) Fr
 eq
 ----------------------------------------------------------------------

 Structure from the checkpoint file:  "NHC24.chk"
 -----
 TITLE
 -----
 Charge =  0 Multiplicity = 1

                         Standard orientation:
 ---------------------------------------------------------------------
 Center     Atomic      Atomic             Coordinates (Angstroms)
 Number     Number       Type             X           Y           Z
 ---------------------------------------------------------------------
      1          6           0        0.547382   -0.082899    0.053753
      2          6           0        1.845748   -0.723072   -0.379204
      3          6           0        1.788134   -0.966591   -1.748496
      4          6           0        0.484952   -0.588932   -2.292043
      5          7           0       -0.193470   -0.112853   -1.269046
      6          6           0        2.976732   -1.017468    0.355554
      7          6           0        4.060206   -1.578179   -0.311870
      8          6           0        4.014666   -1.825655   -1.682119
      9          6           0        2.876288   -1.519659   -2.412288
     10          6           0       -1.622924    0.227424   -1.459141
     11          6           0       -2.116659    1.484857   -0.753901
     12          6           0       -3.561257    1.776222   -1.154152
     13          6           0       -4.481319    0.594003   -0.886621
     14          6           0       -3.967574   -0.660616   -1.578859
     15          6           0       -2.532112   -0.967919   -1.170557
     16          6           0        0.921539    1.342229    0.472706
     17          6           0        1.313349    1.614175    1.781705
     18          6           0        1.778057    2.871530    2.139210
     19          6           0        1.871300    3.879027    1.192164
     20          6           0        1.510099    3.610611   -0.119787
     21          6           0        1.048006    2.353551   -0.475885
     22          6           0       -0.192458   -0.910329    1.100783
     23          6           0       -0.102388   -2.300585    1.049688
     24          6           0       -0.815231   -3.095668    1.931607
     25          6           0       -1.632437   -2.514800    2.890842
     26          6           0       -1.727043   -1.133797    2.955589
     27          6           0       -1.014070   -0.340217    2.068470
     28          1           0        3.029870   -0.824268    1.416797
     29          1           0        4.953601   -1.825471    0.242476
     30          1           0        4.872733   -2.259216   -2.173566
     31          1           0        2.827672   -1.709144   -3.474667
     32          1           0       -1.675803    0.413562   -2.530672
     33          1           0       -2.064428    1.364806    0.326814
     34          1           0       -1.491185    2.335056   -1.011928
     35          1           0       -3.910356    2.659846   -0.620572
     36          1           0       -3.593695    2.022672   -2.218410
     37          1           0       -4.537338    0.415115    0.189967
     38          1           0       -5.493922    0.823076   -1.218749
     39          1           0       -4.604636   -1.513863   -1.346756
     40          1           0       -4.015317   -0.520649   -2.661815
     41          1           0       -2.503735   -1.214477   -0.110466
     42          1           0       -2.155175   -1.832938   -1.715471
     43          1           0        1.265238    0.843076    2.534120
     44          1           0        2.069790    3.058316    3.162118
     45          1           0        2.228936    4.859040    1.470558
     46          1           0        1.589927    4.380566   -0.872908
     47          1           0        0.788980    2.159712   -1.505058
     48          1           0        0.526527   -2.769770    0.308401
     49          1           0       -0.730050   -4.170432    1.869578
     50          1           0       -2.186602   -3.132458    3.581750
     51          1           0       -2.357425   -0.666817    3.697682
     52          1           0       -1.105228    0.731169    2.141197
 ---------------------------------------------------------------------

 SCF Done:  E(RN12SX) =  -1060.30975408     A.U. after    2 cycles

 The electronic state is 1-A.
 Alpha  occ. eigenvalues --  -14.41728 -10.30129 -10.25885 -10.25139 -10.24962
 Alpha  occ. eigenvalues --  -10.24563 -10.23768 -10.23583 -10.23539 -10.23403
 Alpha  occ. eigenvalues --  -10.23235 -10.23214 -10.23170 -10.23149 -10.23126
 Alpha  occ. eigenvalues --  -10.23097 -10.23058 -10.23046 -10.23028 -10.22984
 Alpha  occ. eigenvalues --  -10.22912 -10.22882 -10.21285 -10.21105 -10.20992
 Alpha  occ. eigenvalues --  -10.20957 -10.20775  -0.98655  -0.88316  -0.87435
 Alpha  occ. eigenvalues --   -0.87010  -0.83957  -0.81005  -0.77930  -0.76247
 Alpha  occ. eigenvalues --   -0.76099  -0.75682  -0.75267  -0.74591  -0.73211
 Alpha  occ. eigenvalues --   -0.70096  -0.65077  -0.62508  -0.62180  -0.61179
 Alpha  occ. eigenvalues --   -0.60804  -0.60397  -0.59686  -0.58712  -0.56142
 Alpha  occ. eigenvalues --   -0.55572  -0.53457  -0.52973  -0.49693  -0.49283
 Alpha  occ. eigenvalues --   -0.48013  -0.47248  -0.46464  -0.46258  -0.45418
 Alpha  occ. eigenvalues --   -0.45027  -0.44639  -0.44240  -0.43474  -0.43166
 Alpha  occ. eigenvalues --   -0.42753  -0.42499  -0.42349  -0.41642  -0.39478
 Alpha  occ. eigenvalues --   -0.38920  -0.38684  -0.37846  -0.37664  -0.36989
 Alpha  occ. eigenvalues --   -0.36774  -0.36378  -0.35443  -0.35187  -0.34447
 Alpha  occ. eigenvalues --   -0.34057  -0.33958  -0.33289  -0.32143  -0.31382
 Alpha  occ. eigenvalues --   -0.30671  -0.29430  -0.27357  -0.26159  -0.25922
 Alpha  occ. eigenvalues --   -0.25625  -0.25061  -0.23916  -0.21063
 Alpha virt. eigenvalues --   -0.06958  -0.04358  -0.03586  -0.03044  -0.02533
 Alpha virt. eigenvalues --   -0.01610  -0.01039  -0.00150  -0.00048   0.00257
 Alpha virt. eigenvalues --    0.01027   0.01228   0.01686   0.01948   0.02006

 Mulliken charges:
               1
     1  C    1.496814
     2  C    0.899676
     3  C   -0.036195
     4  C   -0.496791
     5  N    0.723023
     6  C   -0.610538
     7  C   -0.481528
     8  C   -0.217011
     9  C   -0.262790
    10  C    0.041661
    11  C   -0.213504
    12  C   -0.796967
    13  C   -0.303248
    14  C   -0.777690
    15  C   -0.106926
    16  C    0.899518
    17  C   -0.381806
    18  C   -0.396970
    19  C   -0.308763
    20  C   -0.609477
    21  C   -0.618051
    22  C    0.837676
    23  C   -0.929018
    24  C   -0.582343
    25  C   -0.316291
    26  C   -0.338847
    27  C   -0.429525
    28  H    0.151658
    29  H    0.163954
    30  H    0.162343
    31  H    0.153242
    32  H    0.193682
    33  H    0.170779
    34  H    0.204703
    35  H    0.180912
    36  H    0.178902
    37  H    0.167818
    38  H    0.172930
    39  H    0.179163
    40  H    0.176772
    41  H    0.225399
    42  H    0.185480
    43  H    0.173563
    44  H    0.157208
    45  H    0.160027
    46  H    0.155484
    47  H    0.170649
    48  H    0.180109
    49  H    0.157987
    50  H    0.160615
    51  H    0.158487
    52  H    0.174045
 Sum of Mulliken charges =   0.00000

 Dipole moment (field-independent basis, Debye):
    X=             -0.4360    Y=              0.8213    Z=              4.9234  Tot=              5.0105
 Quadrupole moment (field-independent basis, Debye-Ang):
   XX=           -146.3091   YY=           -147.3828   ZZ=           -161.3301
   XY=             -2.1629   XZ=             -0.6273   YZ=             -3.3806

  Exact polarizability: 414.148 -14.827 410.176 -24.216  11.924 427.921
 Approx polarizability: 453.504 -19.649 469.487 -24.278  12.329 513.635

                      1                      2                      3
                      A                      A                      A
 Frequencies --     37.8407                52.5908                53.6394
 Red. masses --      3.7556                 4.0809                 4.4271
 Frc consts  --      0.0032                 0.0067                 0.0075
 IR Inten    --      0.3130                 0.1935                 0.1151

                      4                      5                      6
                      A                      A                      A
 Frequencies --     62.9227                77.3305                80.9159
 Red. masses --      4.5414                 3.7801                 3.8752
 Frc consts  --      0.0106                 0.0133                 0.0149
 IR Inten    --      0.1483                 2.9969                 0.4576

                      7                      8                      9
                      A                      A                      A
 Frequencies --     83.6836                94.9466               115.7365
 Red. masses --      4.0267                 3.9215                 3.9410
 Frc consts  --      0.0166                 0.0208                 0.0311
 IR Inten    --      1.0125                 2.1824                 0.1546

                     10                     11                     12
                      A                      A                      A
 Frequencies --    175.7615               204.1763               219.7521
 Red. masses --      3.6344                 3.4062                 4.2490
 Frc consts  --      0.0662                 0.0837                 0.1209
 IR Inten    --      0.8899                 2.0221                 4.3536

                     13                     14                     15
                      A                      A                      A
 Frequencies --    227.5599               234.6856               259.9949
 Red. masses --      2.1024                 4.6587                 4.6557
 Frc consts  --      0.0641                 0.1512                 0.1854
 IR Inten    --      0.5930                 3.8367                 2.1089

                     16                     17                     18
                      A                      A                      A
 Frequencies --    269.0934               287.3757               292.6512
 Red. masses --      4.5819                 4.8834                 4.1208
 Frc consts  --      0.1955                 0.2376                 0.2079
 IR Inten    --      3.6441                 0.7696                 0.8393

                     19                     20                     21
                      A                      A                      A
 Frequencies --    323.0067               353.1163               370.1823
 Red. masses --      2.4281                 3.7546                 3.7131
 Frc consts  --      0.1493                 0.2758                 0.2998
 IR Inten    --      0.4067                 7.0549                 1.9665

                     22                     23                     24
                      A                      A                      A
 Frequencies --    419.4738               427.1999               431.8623
 Red. masses --      2.8754                 2.6749                 3.0078
 Frc consts  --      0.2981                 0.2876                 0.3305
 IR Inten    --      0.0375                 0.4817                 0.0487

                     25                     26                     27
                      A                      A                      A
 Frequencies --    439.0903               458.1736               480.9721
 Red. masses --      3.0860                 3.4215                 2.6913
 Frc consts  --      0.3506                 0.4232                 0.3668
 IR Inten    --      0.0789                 2.3425                 0.9703

                     28                     29                     30
                      A                      A                      A
 Frequencies --    493.7619               522.5218               529.8722
 Red. masses --      2.1463                 4.9534                 3.8641
 Frc consts  --      0.3083                 0.7968                 0.6392
 IR Inten    --      5.3588                 2.8750                 3.8946

                     31                     32                     33
                      A                      A                      A
 Frequencies --    582.5910               600.0844               605.9725
 Red. masses --      4.2766                 4.4759                 4.7751
 Frc consts  --      0.8552                 0.9496                 1.0331
 IR Inten    --      8.9714                11.5165                26.8048

                     34                     35                     36
                      A                      A                      A
 Frequencies --    632.2713               634.7204               643.5514
 Red. masses --      6.3000                 6.3479                 5.9718
 Frc consts  --      1.4839                 1.5068                 1.4572
 IR Inten    --      1.2912                 0.0876                12.7963

                     37                     38                     39
                      A                      A                      A
 Frequencies --    669.5871               702.7980               720.7811
 Red. masses --      6.4660                 6.3582                 3.7005
 Frc consts  --      1.7081                 1.8503                 1.1327
 IR Inten    --     32.0055                 4.7788                 8.5535

                     40                     41                     42
                      A                      A                      A
 Frequencies --    725.4454               731.7378               768.6541
 Red. masses --      1.6814                 1.7329                 1.9050
 Frc consts  --      0.5213                 0.5467                 0.6632
 IR Inten    --    125.7007                29.4046                55.1529

                     43                     44                     45
                      A                      A                      A
 Frequencies --    773.5382               781.8715               800.2424
 Red. masses --      2.1856                 1.5414                 1.5533
 Frc consts  --      0.7705                 0.5552                 0.5861
 IR Inten    --     47.8134                86.5838                 1.9207

                     46                     47                     48
                      A                      A                      A
 Frequencies --    801.5078               817.0819               865.1115
 Red. masses --      2.6609                 2.4296                 2.3051
 Frc consts  --      1.0072                 0.9557                 1.0164
 IR Inten    --      9.3294                 2.8256                 6.3622

                     49                     50                     51
                      A                      A                      A
 Frequencies --    874.8028               878.7889               892.9432
 Red. masses --      1.2528                 1.2580                 2.2167
 Frc consts  --      0.5649                 0.5724                 1.0414
 IR Inten    --      0.4276                 0.1200                 0.1726

                     52                     53                     54
                      A                      A                      A
 Frequencies --    902.1874               903.7205               913.7011
 Red. masses --      1.4485                 3.9748                 1.4200
 Frc consts  --      0.6947                 1.9126                 0.6985
 IR Inten    --      0.7502                 3.9129                11.5164

                     55                     56                     57
                      A                      A                      A
 Frequencies --    935.7942               945.6088               951.0574
 Red. masses --      2.3631                 2.5089                 3.5851
 Frc consts  --      1.2193                 1.3218                 1.9106
 IR Inten    --      2.6342                 2.6642                26.5925

                     58                     59                     60
                      A                      A                      A
 Frequencies --    957.9278               970.9936               978.6899
 Red. masses --      1.8798                 1.6674                 2.7418
 Frc consts  --      1.0163                 0.9262                 1.5473
 IR Inten    --      5.8801                 6.8817                 1.0260

                     61                     62                     63
                      A                      A                      A
 Frequencies --    990.6974              1014.5570              1015.5739
 Red. masses --      1.4598                 2.4816                 1.4896
 Frc consts  --      0.8441                 1.5050                 0.9052
 IR Inten    --      0.1622                10.1945                 2.0002

                     64                     65                     66
                      A                      A                      A
 Frequencies --   1019.6633              1021.7617              1023.9322
 Red. masses --      1.4105                 5.1461                 4.9729
 Frc consts  --      0.8640                 3.1654                 3.0718
 IR Inten    --      0.6304                 2.0416                 1.6542

                     67                     68                     69
                      A                      A                      A
 Frequencies --   1026.8803              1031.3417              1034.0348
 Red. masses --      1.3229                 1.3086                 1.2939
 Frc consts  --      0.8219                 0.8201                 0.8151
 IR Inten    --      0.0149                 1.2734                 0.1379

                     70                     71                     72
                      A                      A                      A
 Frequencies --   1053.1509              1058.5903              1064.4404
 Red. masses --      2.0321                 1.7243                 2.2815
 Frc consts  --      1.3279                 1.1385                 1.5231
 IR Inten    --     12.5169                 1.0383                 7.8518

                     73                     74                     75
                      A                      A                      A
 Frequencies --   1065.9250              1080.4191              1098.9368
 Red. masses --      2.0649                 1.2245                 1.1379
 Frc consts  --      1.3823                 0.8422                 0.8096
 IR Inten    --     21.0963                 1.4087                 1.9944

                     76                     77                     78
                      A                      A                      A
 Frequencies --   1116.1251              1118.9368              1125.6368
 Red. masses --      1.5622                 1.6246                 2.5885
 Frc consts  --      1.1466                 1.1984                 1.9324
 IR Inten    --     12.9184                 4.4040                 2.6598

                     79                     80                     81
                      A                      A                      A
 Frequencies --   1131.6031              1155.9468              1176.0052
 Red. masses --      1.8578                 3.9570                 2.0651
 Frc consts  --      1.4016                 3.1152                 1.6828
 IR Inten    --      5.7586                34.3155                11.6627

                     82                     83                     84
                      A                      A                      A
 Frequencies --   1181.1290              1184.4425              1185.6541
 Red. masses --      1.3630                 1.0839                 1.0798
 Frc consts  --      1.1203                 0.8959                 0.8944
 IR Inten    --      3.7316                 0.3762                 0.0929

                     85                     86                     87
                      A                      A                      A
 Frequencies --   1192.3749              1210.1129              1214.3120
 Red. masses --      2.5058                 1.1252                 1.1256
 Frc consts  --      2.0991                 0.9708                 0.9779
 IR Inten    --     11.9320                 6.4302                 2.7007

                     88                     89                     90
                      A                      A                      A
 Frequencies --   1221.1602              1231.1305              1252.0710
 Red. masses --      1.7327                 2.9416                 3.9208
 Frc consts  --      1.5224                 2.6269                 3.6215
 IR Inten    --      2.2226                 8.3580                21.2787

                     91                     92                     93
                      A                      A                      A
 Frequencies --   1275.2807              1284.5737              1291.0209
 Red. masses --      3.1399                 1.4972                 1.2722
 Frc consts  --      3.0087                 1.4556                 1.2493
 IR Inten    --     24.2795                28.4788                 2.0201

                     94                     95                     96
                      A                      A                      A
 Frequencies --   1299.4593              1308.8278              1338.7920
 Red. masses --      1.2979                 1.6056                 2.1565
 Frc consts  --      1.2912                 1.6205                 2.2773
 IR Inten    --      2.6941                 3.2598                 1.9581

                     97                     98                     99
                      A                      A                      A
 Frequencies --   1341.6909              1356.3745              1359.9434
 Red. masses --      1.3326                 2.1507                 1.3143
 Frc consts  --      1.4133                 2.3312                 1.4321
 IR Inten    --      1.0519                 0.7669                27.1547

                    100                    101                    102
                      A                      A                      A
 Frequencies --   1368.3476              1370.4697              1371.6560
 Red. masses --      2.2371                 1.6681                 1.9549
 Frc consts  --      2.4679                 1.8459                 2.1670
 IR Inten    --      1.5828                 0.1242                 0.4703

                    103                    104                    105
                      A                      A                      A
 Frequencies --   1382.0913              1384.3619              1388.9561
 Red. masses --      1.5170                 1.4994                 1.4740
 Frc consts  --      1.7073                 1.6930                 1.6754
 IR Inten    --      4.5106                 0.5127                 4.1729

                    106                    107                    108
                      A                      A                      A
 Frequencies --   1393.9955              1408.6516              1463.2419
 Red. masses --      6.1800                 1.4226                 6.0357
 Frc consts  --      7.0756                 1.6632                 7.6140
 IR Inten    --     11.2463                 4.7025               156.0186

                    109                    110                    111
                      A                      A                      A
 Frequencies --   1482.0602              1484.1968              1484.8265
 Red. masses --      1.1540                 1.7768                 1.1786
 Frc consts  --      1.4934                 2.3061                 1.5310
 IR Inten    --      2.6094                26.2397                11.5535

                    112                    113                    114
                      A                      A                      A
 Frequencies --   1487.5012              1489.2476              1492.1749
 Red. masses --      1.1146                 1.1499                 2.0844
 Frc consts  --      1.4531                 1.5026                 2.7345
 IR Inten    --     10.1229                 8.8236                23.3711

                    115                    116                    117
                      A                      A                      A
 Frequencies --   1501.4582              1503.6680              1506.7224
 Red. masses --      2.6746                 1.1412                 2.5614
 Frc consts  --      3.5525                 1.5203                 3.4260
 IR Inten    --      4.8440                 3.7994                22.5530

                    118                    119                    120
                      A                      A                      A
 Frequencies --   1534.6826              1538.4290              1642.7133
 Red. masses --      2.2399                 2.2478                 5.8787
 Frc consts  --      3.1082                 3.1344                 9.3466
 IR Inten    --     31.0527                37.3491                 0.9597

                    121                    122                    123
                      A                      A                      A
 Frequencies --   1647.6544              1649.4912              1664.3562
 Red. masses --      6.6265                 6.1512                 6.2123
 Frc consts  --     10.5991                 9.8608                10.1389
 IR Inten    --      5.3836                 0.9898                20.6034

                    124                    125                    126
                      A                      A                      A
 Frequencies --   1665.9220              1669.9362              3051.8119
 Red. masses --      6.1696                 6.4338                 1.0688
 Frc consts  --     10.0883                10.5711                 5.8649
 IR Inten    --     14.4620                 7.2898                41.1351

                    127                    128                    129
                      A                      A                      A
 Frequencies --   3052.7362              3056.7892              3081.9760
 Red. masses --      1.0661                 1.0608                 1.0619
 Frc consts  --      5.8536                 5.8403                 5.9430
 IR Inten    --     32.9422                75.4600                17.3252

                    130                    131                    132
                      A                      A                      A
 Frequencies --   3097.0024              3103.3840              3105.8348
 Red. masses --      1.0755                 1.0850                 1.0945
 Frc consts  --      6.0776                 6.1566                 6.2204
 IR Inten    --      4.0684                64.3985                84.6373

                    133                    134                    135
                      A                      A                      A
 Frequencies --   3108.6669              3114.7250              3136.3387
 Red. masses --      1.0978                 1.0858                 1.1031
 Frc consts  --      6.2504                 6.2063                 6.3929
 IR Inten    --     56.8557                82.0724                48.8587

                    136                    137                    138
                      A                      A                      A
 Frequencies --   3156.8605              3216.1173              3216.9026
 Red. masses --      1.1027                 1.0861                 1.0861
 Frc consts  --      6.4748                 6.6188                 6.6223
 IR Inten    --     46.4563                 1.5138                 1.0360

                    139                    140                    141
                      A                      A                      A
 Frequencies --   3217.4295              3223.3145              3225.0055
 Red. masses --      1.0866                 1.0892                 1.0891
 Frc consts  --      6.6272                 6.6676                 6.6739
 IR Inten    --      0.6860                 8.3497                 6.8692

                    142                    143                    144
                      A                      A                      A
 Frequencies --   3225.4427              3233.4117              3234.6627
 Red. masses --      1.0896                 1.0944                 1.0927
 Frc consts  --      6.6786                 6.7413                 6.7362
 IR Inten    --      4.2448                24.1704                21.5221

                    145                    146                    147
                      A                      A                      A
 Frequencies --   3235.7008              3240.5757              3241.9240
 Red. masses --      1.0923                 1.0944                 1.0960
 Frc consts  --      6.7381                 6.7714                 6.7868
 IR Inten    --     17.1766                39.2179                 3.0054

                    148                    149                    150
                      A                      A                      A
 Frequencies --   3242.5112              3245.7305              3249.6867
 Red. masses --      1.0982                 1.0980                 1.0951
 Frc consts  --      6.8030                 6.8153                 6.8140
 IR Inten    --     29.9280                 8.7014                 8.7995

 - Thermochemistry -
 -------------------
 Temperature   298.150 Kelvin.  Pressure   1.00000 Atm.
 Atom     1 has atomic number  6 and mass  12.00000

 Molecular mass:   351.19870 amu.
 Principal axes and moments of inertia in atomic units:
                           1         2         3
     Eigenvalues --  7386.533799920.85329**********
           X            0.99981  -0.00882   0.01726
           Y            0.00900   0.99991  -0.01002
           Z           -0.01717   0.01017   0.99980
 This molecule is an asymmetric top.
 Rotational symmetry number  1.
 Warning -- assumption of classical behavior for rotation
           may cause significant error
 Rotational temperatures (Kelvin)      0.01173     0.00873     0.00786
 Rotational constants (GHZ):           0.24433     0.18191     0.16385
 Zero-point vibrational energy    1169275.0 (Joules/Mol)
                                  279.46343 (Kcal/Mol)
 Warning -- explicit consideration of  33 degrees of freedom as
           vibrations may cause significant error
 Vibrational temperatures:     54.44    75.67    77.18    90.53   111.26
          (Kelvin)            116.42   120.40   136.61   166.52   252.88
                              293.76   316.17   327.41   337.66   374.07
                              387.16   413.47   421.06   464.73   508.05
                              532.61   603.53   614.64   621.35   631.75
                              659.21   692.01   710.41   751.79   762.37
                              838.22   863.39   871.86   909.70   913.22
                              925.93   963.39  1011.17  1037.04  1043.75
                             1052.81  1105.92  1112.95  1124.94  1151.37
                             1153.19  1175.60  1244.70  1258.64  1264.38
                             1284.74  1298.04  1300.25  1314.61  1346.40
                             1360.52  1368.36  1378.24  1397.04  1408.11
                             1425.39  1459.72  1461.18  1467.07  1470.09
                             1473.21  1477.45  1483.87  1487.74  1515.25
                             1523.07  1531.49  1533.63  1554.48  1581.12
                             1605.85  1609.90  1619.54  1628.12  1663.15
                             1692.01  1699.38  1704.15  1705.89  1715.56
                             1741.08  1747.12  1756.97  1771.32  1801.45
                             1834.84  1848.21  1857.49  1869.63  1883.11
                             1926.22  1930.39  1951.52  1956.65  1968.74
                             1971.80  1973.50  1988.52  1991.79  1998.40
                             2005.65  2026.73  2105.28  2132.35  2135.43
                             2136.33  2140.18  2142.69  2146.90  2160.26
                             2163.44  2167.83  2208.06  2213.45  2363.50
                             2370.60  2373.25  2394.63  2396.89  2402.66
                             4390.87  4392.20  4398.03  4434.27  4455.89
                             4465.07  4468.60  4472.67  4481.39  4512.49
                             4542.01  4627.27  4628.40  4629.16  4637.62
                             4640.06  4640.69  4652.15  4653.95  4655.45
                             4662.46  4664.40  4665.24  4669.88  4675.57

 Zero-point correction=                           0.445353 (Hartree/Particle)
 Thermal correction to Energy=                    0.466722
 Thermal correction to Enthalpy=                  0.467666
 Thermal correction to Gibbs Free Energy=         0.395381
 Sum of electronic and zero-point Energies=          -1059.864401
 Sum of electronic and thermal Energies=             -1059.843032
 Sum of electronic and thermal Enthalpies=           -1059.842088
 Sum of electronic and thermal Free Energies=        -1059.914373

                     E (Thermal)             CV                S
                      KCal/Mol        Cal/Mol-Kelvin    Cal/Mol-Kelvin
 Total                  292.872             88.126            152.135
 Electronic               0.000              0.000              0.000
 Translational            0.889              2.981             43.462
 Rotational               0.889              2.981             35.044
 Vibrational            291.095             82.164             73.628
 Vibration     1          0.594              1.982              5.369
 Vibration     2          0.596              1.977              4.718
 Vibration     3          0.596              1.976              4.678
 Vibration     4          0.597              1.972              4.363
 Vibration     5          0.599              1.964              3.958
 Vibration     6          0.600              1.962              3.869
 Vibration     7          0.601              1.960              3.803
 Vibration     8          0.603              1.953              3.555
 Vibration     9          0.608              1.936              3.170
 Vibration    10          0.628              1.872              2.373
 Vibration    11          0.640              1.834              2.095
 Vibration    12          0.647              1.811              1.961
 Vibration    13          0.651              1.799              1.898
 Vibration    14          0.654              1.788              1.843
 Vibration    15          0.668              1.746              1.662
 Vibration    16          0.673              1.730              1.602
 Vibration    17          0.685              1.697              1.489
 Vibration    18          0.688              1.687              1.459
 Vibration    19          0.708              1.629              1.295
 Vibration    20          0.729              1.569              1.152
 Vibration    21          0.742              1.533              1.079
 Vibration    22          0.782              1.428              0.894
 Vibration    23          0.789              1.411              0.868
 Vibration    24          0.793              1.401              0.853
 Vibration    25          0.799              1.385              0.829
 Vibration    26          0.816              1.343              0.771
 Vibration    27          0.837              1.292              0.707
 Vibration    28          0.849              1.264              0.674
 Vibration    29          0.877              1.200              0.604
 Vibration    30          0.885              1.184              0.587
 Vibration    31          0.939              1.069              0.481
 Vibration    32          0.958              1.032              0.450
 Vibration    33          0.965              1.019              0.439

 Optimization completed.
    -- Stationary point found.
 Normal termination of Gaussian 09 at Wed Jun 23 05:24:58 2021.
