 Gaussian 09, Revision D.01,
 Gaussian 09:  ES64L-G09RevD.01 24-Apr-2013

 ----------------------------------------------------------
 #p opt freq n12sx/6-311+g(d,p) scrf=(iefpcm,solvent=water)
 ----------------------------------------------------------

 -----
 TITLE
 -----
 Symbolic Z-matrix:
 Charge =  0 Multiplicity = 1

 SCF Done:  E(RN12SX) =  -438.627616896     A.U. after   15 cycles
 SCF Done:  E(RN12SX) =  -438.628495588     A.U. after   11 cycles
 SCF Done:  E(RN12SX) =  -438.628544144     A.U. after   10 cycles
 SCF Done:  E(RN12SX) =  -438.628554264     A.U. after   10 cycles
 SCF Done:  E(RN12SX) =  -438.628559288     A.U. after   10 cycles
 SCF Done:  E(RN12SX) =  -438.628566181     A.U. after   10 cycles
 SCF Done:  E(RN12SX) =  -438.628579233     A.U. after   11 cycles
 SCF Done:  E(RN12SX) =  -438.628609107     A.U. after   10 cycles
 SCF Done:  E(RN12SX) =  -438.592843891     A.U. after   13 cycles
 SCF Done:  E(RN12SX) =  -438.628609140     A.U. after    5 cycles
 SCF Done:  E(RN12SX) =  -438.632010689     A.U. after   10 cycles
 SCF Done:  E(RN12SX) =  -438.632030288     A.U. after   10 cycles
 SCF Done:  E(RN12SX) =  -438.632040663     A.U. after   10 cycles
 SCF Done:  E(RN12SX) =  -438.632041619     A.U. after   10 cycles
 SCF Done:  E(RN12SX) =  -438.632043256     A.U. after    9 cycles
 SCF Done:  E(RN12SX) =  -438.632043593     A.U. after    8 cycles
 SCF Done:  E(RN12SX) =  -438.632044112     A.U. after    9 cycles
 SCF Done:  E(RN12SX) =  -438.632044259     A.U. after    8 cycles
 SCF Done:  E(RN12SX) =  -438.632044321     A.U. after    7 cycles
 Optimization completed.
    -- Stationary point found.
 Normal termination of Gaussian 09 at Wed Jun 23 06:36:48 2021.

 ----------------------------------------------------------------------
 #P Geom=AllCheck Guess=TCheck SCRF=Check GenChk RN12SX/6-311+G(d,p) Fr
 eq
 ----------------------------------------------------------------------

 Structure from the checkpoint file:  "NHC26-.chk"
 -----
 TITLE
 -----
 Charge =  0 Multiplicity = 1

                         Standard orientation:
 ---------------------------------------------------------------------
 Center     Atomic      Atomic             Coordinates (Angstroms)
 Number     Number       Type             X           Y           Z
 ---------------------------------------------------------------------
      1          7           0        0.826243   -1.168734   -0.203972
      2          7           0       -0.463185   -1.128677   -0.008839
      3          6           0       -0.943204    0.146270   -0.037805
      4          6           0        0.129263    1.005284   -0.270426
      5          7           0        1.148923    0.100702   -0.357289
      6          6           0       -1.201904   -2.358264    0.182125
      7          6           0        3.255904    0.729719    0.759166
      8          6           0        2.557993    0.414915   -0.547923
      9          6           0       -2.758258    1.886412    0.040860
     10          6           0       -2.394964    0.417400    0.158811
     11          1           0       -1.911622   -2.492039   -0.628960
     12          1           0       -0.497936   -3.180418    0.191645
     13          1           0       -1.736399   -2.321099    1.126217
     14          1           0        4.299344    0.971322    0.568863
     15          1           0        2.790966    1.582013    1.249156
     16          1           0        3.220965   -0.122377    1.434629
     17          1           0        3.016619   -0.437649   -1.040598
     18          1           0        2.596213    1.262884   -1.223683
     19          1           0       -3.826516    2.021552    0.195671
     20          1           0       -2.228027    2.482800    0.779460
     21          1           0       -2.503764    2.276186   -0.942056
     22          1           0       -2.971284   -0.160485   -0.567561
     23          1           0       -2.701406    0.043863    1.139079
 ---------------------------------------------------------------------

 SCF Done:  E(RN12SX) =  -438.632044321     A.U. after    1 cycles

 The electronic state is 1-A.
 Alpha  occ. eigenvalues --  -14.46917 -14.45273 -14.43171 -10.26597 -10.26058
 Alpha  occ. eigenvalues --  -10.25644 -10.22873 -10.21238 -10.20545 -10.20509
 Alpha  occ. eigenvalues --   -1.13231  -0.95595  -0.83251  -0.80473  -0.76128
 Alpha  occ. eigenvalues --   -0.73321  -0.66658  -0.64372  -0.60380  -0.57069
 Alpha  occ. eigenvalues --   -0.52009  -0.51291  -0.47556  -0.45536  -0.44693
 Alpha  occ. eigenvalues --   -0.43937  -0.42101  -0.41544  -0.39280  -0.38565
 Alpha  occ. eigenvalues --   -0.37537  -0.35750  -0.35008  -0.34722  -0.33914
 Alpha  occ. eigenvalues --   -0.29270  -0.24106  -0.21405
 Alpha virt. eigenvalues --   -0.03776  -0.00447   0.00732   0.01293   0.01534
 Alpha virt. eigenvalues --    0.02916   0.03277   0.03400   0.03468   0.04033
 Alpha virt. eigenvalues --    0.05668   0.05859   0.06201   0.06616   0.07009

 Mulliken charges:
               1
     1  N   -0.310596
     2  N    0.285919
     3  C    0.289001
     4  C   -1.109061
     5  N    0.255276
     6  C   -0.254292
     7  C   -0.524613
     8  C   -0.182354
     9  C   -0.658985
    10  C   -0.144550
    11  H    0.203057
    12  H    0.206941
    13  H    0.194665
    14  H    0.174237
    15  H    0.168358
    16  H    0.166845
    17  H    0.184873
    18  H    0.186151
    19  H    0.161823
    20  H    0.165377
    21  H    0.165225
    22  H    0.186058
    23  H    0.190644
 Sum of Mulliken charges =   0.00000

 Dipole moment (field-independent basis, Debye):
    X=             -1.4641    Y=             -4.8162    Z=              0.8012  Tot=              5.0972
 Quadrupole moment (field-independent basis, Debye-Ang):
   XX=            -48.1977   YY=            -63.7356   ZZ=            -61.6471
   XY=              6.1599   XZ=             -1.6983   YZ=              0.2125

  Exact polarizability: 158.697   1.511 150.505  -4.579  -2.980 105.631
 Approx polarizability: 174.738  -3.714 169.833  -7.202  -2.988 120.076

                      1                      2                      3
                      A                      A                      A
 Frequencies --     48.3903                55.1004                72.4762
 Red. masses --      2.2068                 2.2157                 1.0863
 Frc consts  --      0.0030                 0.0040                 0.0034
 IR Inten    --      0.3473                 2.9377                 0.1275

                      4                      5                      6
                      A                      A                      A
 Frequencies --    112.6614               166.1692               207.1751
 Red. masses --      2.8094                 2.4219                 1.6826
 Frc consts  --      0.0210                 0.0394                 0.0426
 IR Inten    --     11.2046                 2.5508                 1.6569

                      7                      8                      9
                      A                      A                      A
 Frequencies --    222.1503               242.6607               286.5265
 Red. masses --      1.2684                 2.5095                 2.1912
 Frc consts  --      0.0369                 0.0871                 0.1060
 IR Inten    --      3.7785                 0.1720                 5.1245

                     10                     11                     12
                      A                      A                      A
 Frequencies --    292.1808               368.8072               424.2869
 Red. masses --      1.9616                 2.6155                 4.1342
 Frc consts  --      0.0987                 0.2096                 0.4385
 IR Inten    --      6.1504                 8.2189                 6.2085

                     13                     14                     15
                      A                      A                      A
 Frequencies --    546.9720               612.2927               660.1116
 Red. masses --      3.5078                 3.2551                 4.2506
 Frc consts  --      0.6183                 0.7190                 1.0913
 IR Inten    --      0.1621                 4.9146                13.7078

                     16                     17                     18
                      A                      A                      A
 Frequencies --    672.3864               720.3304               804.1338
 Red. masses --      3.9566                 7.6314                 1.2058
 Frc consts  --      1.0539                 2.3330                 0.4594
 IR Inten    --      0.5604                 1.5087                 2.6773

                     19                     20                     21
                      A                      A                      A
 Frequencies --    806.1536               824.9811               984.5318
 Red. masses --      1.2633                 3.3176                 2.1739
 Frc consts  --      0.4837                 1.3303                 1.2415
 IR Inten    --      6.9255                12.1977                 3.5702

                     22                     23                     24
                      A                      A                      A
 Frequencies --   1024.6274              1063.0794              1078.9685
 Red. masses --      1.8691                 3.2792                 2.2589
 Frc consts  --      1.1561                 2.1835                 1.5494
 IR Inten    --     21.7470                34.4548                41.0007

                     25                     26                     27
                      A                      A                      A
 Frequencies --   1099.1552              1109.9060              1114.2069
 Red. masses --      2.3398                 1.5595                 2.0158
 Frc consts  --      1.6655                 1.1319                 1.4744
 IR Inten    --     19.1825                 2.6378                18.7427

                     28                     29                     30
                      A                      A                      A
 Frequencies --   1130.0992              1153.8058              1185.3316
 Red. masses --      1.9392                 1.3593                 3.4827
 Frc consts  --      1.4591                 1.0662                 2.8830
 IR Inten    --     14.4167                 0.7157                 1.5271

                     31                     32                     33
                      A                      A                      A
 Frequencies --   1265.8972              1298.5490              1354.3426
 Red. masses --      1.8955                 1.1460                 2.1626
 Frc consts  --      1.7897                 1.1386                 2.3371
 IR Inten    --     58.8143                 0.2816               119.1245

                     34                     35                     36
                      A                      A                      A
 Frequencies --   1362.3003              1391.0113              1398.1080
 Red. masses --      2.8190                 1.2949                 2.8047
 Frc consts  --      3.0825                 1.4762                 3.2301
 IR Inten    --     18.5760                14.3221                39.9380

                     37                     38                     39
                      A                      A                      A
 Frequencies --   1405.9103              1411.5918              1414.7054
 Red. masses --      2.3746                 1.3461                 1.4507
 Frc consts  --      2.7654                 1.5803                 1.7106
 IR Inten    --      6.5971                10.2618                 2.8264

                     40                     41                     42
                      A                      A                      A
 Frequencies --   1451.2960              1472.4349              1480.4801
 Red. masses --      1.4940                 1.1908                 1.1715
 Frc consts  --      1.8541                 1.5212                 1.5128
 IR Inten    --      0.4553                16.9662                19.3246

                     43                     44                     45
                      A                      A                      A
 Frequencies --   1481.3324              1484.9105              1484.9888
 Red. masses --      1.0883                 1.3867                 1.1954
 Frc consts  --      1.4071                 1.8015                 1.5531
 IR Inten    --      1.4514                25.1318                 6.5113

                     46                     47                     48
                      A                      A                      A
 Frequencies --   1486.8526              1492.6280              1501.8908
 Red. masses --      1.0398                 1.2069                 1.0823
 Frc consts  --      1.3544                 1.5842                 1.4384
 IR Inten    --     15.8832                 1.7707                14.2043

                     49                     50                     51
                      A                      A                      A
 Frequencies --   1505.0142              1553.9585              3052.8212
 Red. masses --      1.2772                 3.8331                 1.0604
 Frc consts  --      1.7045                 5.4536                 5.8226
 IR Inten    --      3.4709                46.5516                38.7899

                     52                     53                     54
                      A                      A                      A
 Frequencies --   3080.1791              3081.0933              3082.0305
 Red. masses --      1.0353                 1.0988                 1.0375
 Frc consts  --      5.7870                 6.1458                 5.8064
 IR Inten    --     22.7591                18.7449                35.2917

                     55                     56                     57
                      A                      A                      A
 Frequencies --   3106.5045              3126.2353              3157.4479
 Red. masses --      1.0338                 1.0613                 1.1035
 Frc consts  --      5.8780                 6.1113                 6.4817
 IR Inten    --     21.3764                22.5366                15.3587

                     58                     59                     60
                      A                      A                      A
 Frequencies --   3157.9251              3162.0312              3163.4901
 Red. masses --      1.1026                 1.1028                 1.1013
 Frc consts  --      6.4786                 6.4965                 6.4935
 IR Inten    --     43.3202                38.0986                33.4949

                     61                     62                     63
                      A                      A                      A
 Frequencies --   3186.0490              3188.0100              3225.2322
 Red. masses --      1.1059                 1.1072                 1.1047
 Frc consts  --      6.6143                 6.6299                 6.7707
 IR Inten    --      5.8351                21.2009                 1.3729

 - Thermochemistry -
 -------------------
 Temperature   298.150 Kelvin.  Pressure   1.00000 Atm.
 Atom     1 has atomic number  7 and mass  14.00307

 Molecular mass:   139.11095 amu.
 Principal axes and moments of inertia in atomic units:
                           1         2         3
     Eigenvalues --   850.338571975.580962640.74660
           X            0.99998   0.00596   0.00363
           Y           -0.00596   0.99998  -0.00015
           Z           -0.00363   0.00013   0.99999
 This molecule is an asymmetric top.
 Rotational symmetry number  1.
 Warning -- assumption of classical behavior for rotation
           may cause significant error
 Rotational temperatures (Kelvin)      0.10186     0.04384     0.03280
 Rotational constants (GHZ):           2.12238     0.91352     0.68342
 Zero-point vibrational energy     529687.9 (Joules/Mol)
                                  126.59846 (Kcal/Mol)
 Warning -- explicit consideration of  14 degrees of freedom as
           vibrations may cause significant error
 Vibrational temperatures:     69.62    79.28   104.28   162.09   239.08
          (Kelvin)            298.08   319.62   349.13   412.25   420.38
                              530.63   610.45   786.97   880.95   949.75
                              967.41  1036.39  1156.97  1159.87  1186.96
                             1416.52  1474.21  1529.53  1552.39  1581.44
                             1596.91  1603.09  1625.96  1660.07  1705.43
                             1821.34  1868.32  1948.59  1960.04  2001.35
                             2011.56  2022.79  2030.96  2035.44  2088.09
                             2118.50  2130.08  2131.30  2136.45  2136.56
                             2139.25  2147.56  2160.88  2165.38  2235.80
                             4392.32  4431.69  4433.00  4434.35  4469.56
                             4497.95  4542.86  4543.54  4549.45  4551.55
                             4584.01  4586.83  4640.38

 Zero-point correction=                           0.201747 (Hartree/Particle)
 Thermal correction to Energy=                    0.212751
 Thermal correction to Enthalpy=                  0.213695
 Thermal correction to Gibbs Free Energy=         0.164226
 Sum of electronic and zero-point Energies=           -438.430297
 Sum of electronic and thermal Energies=              -438.419294
 Sum of electronic and thermal Enthalpies=            -438.418350
 Sum of electronic and thermal Free Energies=         -438.467818

                     E (Thermal)             CV                S
                      KCal/Mol        Cal/Mol-Kelvin    Cal/Mol-Kelvin
 Total                  133.503             38.907            104.115
 Electronic               0.000              0.000              0.000
 Translational            0.889              2.981             40.702
 Rotational               0.889              2.981             29.874
 Vibrational            131.726             32.945             33.539
 Vibration     1          0.595              1.978              4.882
 Vibration     2          0.596              1.976              4.625
 Vibration     3          0.599              1.967              4.085
 Vibration     4          0.607              1.939              3.223
 Vibration     5          0.624              1.884              2.478
 Vibration     6          0.641              1.830              2.068
 Vibration     7          0.648              1.807              1.942
 Vibration     8          0.659              1.775              1.783
 Vibration     9          0.684              1.699              1.494
 Vibration    10          0.688              1.688              1.461
 Vibration    11          0.741              1.536              1.085
 Vibration    12          0.786              1.417              0.878
 Vibration    13          0.902              1.146              0.550
 Vibration    14          0.972              1.006              0.429

 Optimization completed.
    -- Stationary point found.
 Normal termination of Gaussian 09 at Wed Jun 23 06:47:24 2021.
