 Gaussian 09, Revision D.01,
 Gaussian 09:  ES64L-G09RevD.01 24-Apr-2013

 ----------------------------------------------------------
 #p opt freq n12sx/6-311+g(d,p) scrf=(iefpcm,solvent=water)
 ----------------------------------------------------------

 -----
 TITLE
 -----
 Symbolic Z-matrix:
 Charge =  0 Multiplicity = 1

 SCF Done:  E(RN12SX) =  -1261.84863102     A.U. after   17 cycles
 SCF Done:  E(RN12SX) =  -1261.91021272     A.U. after   15 cycles
 SCF Done:  E(RN12SX) =  -1261.93976161     A.U. after   17 cycles
 SCF Done:  E(RN12SX) =  -1261.94347519     A.U. after   17 cycles
 SCF Done:  E(RN12SX) =  -1261.94421397     A.U. after   16 cycles
 SCF Done:  E(RN12SX) =  -1261.94588320     A.U. after   15 cycles
 SCF Done:  E(RN12SX) =  -1261.94683289     A.U. after   16 cycles
 SCF Done:  E(RN12SX) =  -1261.94786275     A.U. after   16 cycles
 SCF Done:  E(RN12SX) =  -1261.94893113     A.U. after   16 cycles
 SCF Done:  E(RN12SX) =  -1261.94902666     A.U. after   13 cycles
 SCF Done:  E(RN12SX) =  -1261.94650478     A.U. after   18 cycles
 SCF Done:  E(RN12SX) =  -1261.94909831     A.U. after   18 cycles
 SCF Done:  E(RN12SX) =  -1261.94917791     A.U. after   15 cycles
 SCF Done:  E(RN12SX) =  -1261.94917719     A.U. after   14 cycles
 SCF Done:  E(RN12SX) =  -1261.94917700     A.U. after   14 cycles
 SCF Done:  E(RN12SX) =  -1261.94918448     A.U. after   12 cycles
 SCF Done:  E(RN12SX) =  -1261.94918373     A.U. after   13 cycles
 SCF Done:  E(RN12SX) =  -1261.94918537     A.U. after   12 cycles
 SCF Done:  E(RN12SX) =  -1261.94918532     A.U. after   11 cycles
 Optimization completed.
    -- Stationary point found.
 Normal termination of Gaussian 09 at Sun Nov 14 17:55:32 2021.

 ----------------------------------------------------------------------
 #P Geom=AllCheck Guess=TCheck SCRF=Check GenChk RN12SX/6-311+G(d,p) Fr
 eq
 ----------------------------------------------------------------------

 Structure from the checkpoint file:  "NHC32.chk"
 -----
 TITLE
 -----
 Charge =  0 Multiplicity = 1

                         Standard orientation:
 ---------------------------------------------------------------------
 Center     Atomic      Atomic             Coordinates (Angstroms)
 Number     Number       Type             X           Y           Z
 ---------------------------------------------------------------------
      1          6           0       -0.503108   -0.704592   -0.034097
      2          7           0       -0.292932    0.623959    0.006786
      3          6           0        1.018377    1.092753    0.012331
      4          6           0        1.852790    0.007525   -0.008826
      5          6           0        3.313933    0.007774   -0.003801
      6          6           0        4.004411    1.194693   -0.272523
      7          6           0        5.387375    1.226589   -0.270169
      8          6           0        6.118790    0.075303   -0.005377
      9          6           0        5.446735   -1.108474    0.260787
     10          6           0        4.061294   -1.141765    0.264256
     11          6           0       -1.780059   -1.405271   -0.124026
     12          6           0       -2.780126   -0.967451   -0.996077
     13          6           0       -3.967301   -1.669594   -1.100563
     14          6           0       -4.175939   -2.812167   -0.339949
     15          6           0       -3.185245   -3.255878    0.523941
     16          6           0       -1.992769   -2.561108    0.630698
     17          1           0        3.436183    2.087015   -0.483262
     18          1           0        5.898574    2.154518   -0.481397
     19          1           0        7.198127    0.101443   -0.006365
     20          1           0        6.001056   -2.010865    0.472488
     21          1           0        3.562054   -2.073509    0.490062
     22          1           0       -2.622356   -0.089731   -1.602477
     23          1           0       -4.729824   -1.326615   -1.783355
     24          1           0       -5.105371   -3.355023   -0.422681
     25          1           0       -3.341025   -4.142220    1.119925
     26          1           0       -1.230060   -2.903095    1.313835
     27          6           0       -1.370465    1.563873    0.133674
     28          6           0       -2.229126    1.487345    1.218226
     29          6           0       -1.512042    2.560019   -0.818585
     30          6           0       -3.251294    2.415988    1.341870
     31          6           0       -2.538242    3.481885   -0.689454
     32          6           0       -3.409816    3.411263    0.388802
     33          1           0       -2.095611    0.715454    1.960504
     34          1           0       -0.822139    2.606114   -1.646428
     35          1           0       -3.919108    2.362886    2.188255
     36          1           0       -2.655425    4.256524   -1.432087
     37          1           0       -4.206586    4.132813    0.488072
     38         16           0        0.977063   -1.517231   -0.055589
 ---------------------------------------------------------------------

 SCF Done:  E(RN12SX) =  -1261.94918532     A.U. after    2 cycles

 The electronic state is 1-A.
 Alpha  occ. eigenvalues --  -89.17694 -14.45593 -10.32725 -10.28222 -10.26524
 Alpha  occ. eigenvalues --  -10.25816 -10.24792 -10.24403 -10.24382 -10.24023
 Alpha  occ. eigenvalues --  -10.23913 -10.23870 -10.23789 -10.23772 -10.23703
 Alpha  occ. eigenvalues --  -10.23680 -10.23511 -10.23015 -10.22905 -10.22808
 Alpha  occ. eigenvalues --  -10.22650 -10.22588 -10.21922  -7.88555  -5.92565
 Alpha  occ. eigenvalues --   -5.92203  -5.92008  -1.02454  -0.89097  -0.88447
 Alpha  occ. eigenvalues --   -0.87272  -0.83911  -0.80586  -0.77199  -0.76725
 Alpha  occ. eigenvalues --   -0.76618  -0.75629  -0.74932  -0.72510  -0.65167
 Alpha  occ. eigenvalues --   -0.64495  -0.63240  -0.62552  -0.61417  -0.61125
 Alpha  occ. eigenvalues --   -0.57743  -0.56768  -0.55638  -0.51907  -0.51254
 Alpha  occ. eigenvalues --   -0.49604  -0.48798  -0.47328  -0.47200  -0.45826
 Alpha  occ. eigenvalues --   -0.45253  -0.44825  -0.43906  -0.43491  -0.42772
 Alpha  occ. eigenvalues --   -0.42646  -0.42209  -0.41781  -0.39649  -0.38799
 Alpha  occ. eigenvalues --   -0.38254  -0.37687  -0.36967  -0.36264  -0.35731
 Alpha  occ. eigenvalues --   -0.35550  -0.35102  -0.34197  -0.31405  -0.29464
 Alpha  occ. eigenvalues --   -0.27110  -0.26867  -0.26404  -0.25811  -0.25724
 Alpha  occ. eigenvalues --   -0.21343  -0.21042
 Alpha virt. eigenvalues --   -0.09052  -0.04348  -0.03938  -0.03412  -0.02818
 Alpha virt. eigenvalues --   -0.02713  -0.01256  -0.00783  -0.00227   0.00193
 Alpha virt. eigenvalues --    0.00726   0.00885   0.01317   0.01983   0.02089

 Mulliken charges:
               1
     1  C    0.160690
     2  N    1.046055
     3  C   -0.585472
     4  C    0.629671
     5  C    0.981057
     6  C   -0.580900
     7  C   -0.525272
     8  C   -0.270217
     9  C   -0.431946
    10  C   -0.159237
    11  C    1.184363
    12  C   -0.469765
    13  C   -0.340456
    14  C   -0.277010
    15  C   -0.363455
    16  C   -0.692538
    17  H    0.170628
    18  H    0.158810
    19  H    0.158331
    20  H    0.158696
    21  H    0.154834
    22  H    0.169942
    23  H    0.165427
    24  H    0.167226
    25  H    0.166724
    26  H    0.174171
    27  C   -0.911909
    28  C    0.159258
    29  C    0.466819
    30  C   -0.449665
    31  C   -0.368018
    32  C   -0.146289
    33  H    0.162930
    34  H    0.165282
    35  H    0.165219
    36  H    0.165733
    37  H    0.164312
    38  S   -0.524030
 Sum of Mulliken charges =   0.00000

 Dipole moment (field-independent basis, Debye):
    X=             -6.0361    Y=             -3.5722    Z=             -0.1195  Tot=              7.0149
 Quadrupole moment (field-independent basis, Debye-Ang):
   XX=           -115.9490   YY=           -127.6352   ZZ=           -138.3312
   XY=             -5.1840   XZ=             -0.2480   YZ=             -8.8065

  Exact polarizability: 567.345  19.573 407.464   1.792 -38.643 252.859
 Approx polarizability: 639.117  16.493 496.309   0.970 -59.811 314.985

                      1                      2                      3
                      A                      A                      A
 Frequencies --     28.5036                37.3410                45.4267
 Red. masses --      3.7052                 4.4102                 5.2211
 Frc consts  --      0.0018                 0.0036                 0.0063
 IR Inten    --      0.1146                 0.1878                 0.4302

                      4                      5                      6
                      A                      A                      A
 Frequencies --     51.5168                59.9606                65.7958
 Red. masses --      4.1834                 5.2044                 4.8757
 Frc consts  --      0.0065                 0.0110                 0.0124
 IR Inten    --      0.3227                 1.0719                 0.6866

                      7                      8                      9
                      A                      A                      A
 Frequencies --     96.9354               120.0828               160.1369
 Red. masses --      7.9000                 5.2813                 5.1699
 Frc consts  --      0.0437                 0.0449                 0.0781
 IR Inten    --      7.9415                 0.8988                 3.1361

                     10                     11                     12
                      A                      A                      A
 Frequencies --    217.9135               231.7331               251.4404
 Red. masses --      5.1806                 6.6067                 4.9607
 Frc consts  --      0.1449                 0.2090                 0.1848
 IR Inten    --      0.6571                 0.0579                 2.5577

                     13                     14                     15
                      A                      A                      A
 Frequencies --    262.3270               305.1941               357.3949
 Red. masses --      5.3454                 5.5102                 6.4551
 Frc consts  --      0.2167                 0.3024                 0.4858
 IR Inten    --      2.0658                 8.4761                 1.2225

                     16                     17                     18
                      A                      A                      A
 Frequencies --    378.0897               412.8946               414.6491
 Red. masses --      7.4997                 2.8959                 2.9008
 Frc consts  --      0.6317                 0.2909                 0.2939
 IR Inten    --      7.8120                 2.0553                 0.0306

                     19                     20                     21
                      A                      A                      A
 Frequencies --    420.3538               421.5262               482.8322
 Red. masses --      5.4546                 3.2219                 4.5090
 Frc consts  --      0.5679                 0.3373                 0.6193
 IR Inten    --      1.6500                 0.5809                 7.8118

                     22                     23                     24
                      A                      A                      A
 Frequencies --    498.8592               533.6073               580.0941
 Red. masses --      4.6445                 4.1683                 4.3985
 Frc consts  --      0.6810                 0.6993                 0.8721
 IR Inten    --      6.3775                 3.1250                 9.6668

                     25                     26                     27
                      A                      A                      A
 Frequencies --    590.1687               626.1776               627.9624
 Red. masses --      5.1841                 7.5464                 7.0130
 Frc consts  --      1.0638                 1.7433                 1.6294
 IR Inten    --     31.7499                 3.4798                 3.3452

                     28                     29                     30
                      A                      A                      A
 Frequencies --    632.0126               635.3758               678.9949
 Red. masses --      6.4279                 6.8557                 6.9186
 Frc consts  --      1.5128                 1.6307                 1.8793
 IR Inten    --      0.9041                 1.9745                 9.6112

                     31                     32                     33
                      A                      A                      A
 Frequencies --    690.5156               708.6052               712.0341
 Red. masses --      6.1313                 3.3866                 1.7920
 Frc consts  --      1.7225                 1.0019                 0.5353
 IR Inten    --      3.5625                28.0982                72.3113

                     34                     35                     36
                      A                      A                      A
 Frequencies --    713.5133               716.4761               727.1777
 Red. masses --      1.9873                 2.9472                 3.7387
 Frc consts  --      0.5961                 0.8914                 1.1648
 IR Inten    --    102.5055                21.7955                25.7752

                     37                     38                     39
                      A                      A                      A
 Frequencies --    783.0343               785.0818               795.0917
 Red. masses --      1.8994                 1.9869                 2.1107
 Frc consts  --      0.6862                 0.7215                 0.7862
 IR Inten    --     38.1355               109.6149                70.7631

                     40                     41                     42
                      A                      A                      A
 Frequencies --    859.4680               863.1652               865.9437
 Red. masses --      1.2512                 1.2556                 1.2527
 Frc consts  --      0.5445                 0.5512                 0.5535
 IR Inten    --      0.1495                 0.2076                 0.6910

                     43                     44                     45
                      A                      A                      A
 Frequencies --    896.0026               944.5782               949.6198
 Red. masses --      6.6849                 1.4296                 1.4662
 Frc consts  --      3.1620                 0.7515                 0.7790
 IR Inten    --      2.8357                 7.5716                12.7773

                     46                     47                     48
                      A                      A                      A
 Frequencies --    956.1809               976.6734              1006.6451
 Red. masses --      1.4142                 7.5837                 1.3956
 Frc consts  --      0.7618                 4.2622                 0.8332
 IR Inten    --      7.8046                26.3485                 0.5540

                     49                     50                     51
                      A                      A                      A
 Frequencies --   1008.3293              1012.4101              1015.3119
 Red. masses --      1.3708                 1.4526                 5.7831
 Frc consts  --      0.8211                 0.8772                 3.5124
 IR Inten    --      0.3216                 3.4335                21.1366

                     52                     53                     54
                      A                      A                      A
 Frequencies --   1018.4991              1021.2326              1024.0606
 Red. masses --      5.9329                 6.1296                 6.0617
 Frc consts  --      3.6261                 3.7664                 3.7454
 IR Inten    --      2.8805                 0.5966                 3.2485

                     55                     56                     57
                      A                      A                      A
 Frequencies --   1024.7794              1028.4413              1032.2366
 Red. masses --      1.2963                 1.3058                 1.3103
 Frc consts  --      0.8021                 0.8138                 0.8226
 IR Inten    --      0.4037                 0.1873                 0.1873

                     58                     59                     60
                      A                      A                      A
 Frequencies --   1058.2851              1061.2127              1066.4677
 Red. masses --      2.1061                 2.0313                 1.9981
 Frc consts  --      1.3898                 1.3478                 1.3390
 IR Inten    --     18.2955                18.3276                 2.1905

                     61                     62                     63
                      A                      A                      A
 Frequencies --   1107.6143              1111.3330              1116.1049
 Red. masses --      1.6318                 1.5145                 1.6026
 Frc consts  --      1.1795                 1.1021                 1.1762
 IR Inten    --     45.8526                10.4831                 4.1779

                     64                     65                     66
                      A                      A                      A
 Frequencies --   1161.5613              1182.0227              1185.5512
 Red. masses --      3.8119                 1.0858                 1.0969
 Frc consts  --      3.0303                 0.8938                 0.9083
 IR Inten    --     15.4721                 0.2052                 0.2360

                     67                     68                     69
                      A                      A                      A
 Frequencies --   1188.0605              1195.2959              1206.0735
 Red. masses --      1.0805                 1.2004                 1.1410
 Frc consts  --      0.8986                 1.0105                 0.9779
 IR Inten    --      0.0312                 2.3204                 1.8718

                     70                     71                     72
                      A                      A                      A
 Frequencies --   1212.4282              1216.6101              1250.4228
 Red. masses --      1.2458                 2.6342                 4.8026
 Frc consts  --      1.0790                 2.2972                 4.4243
 IR Inten    --      7.2352                 2.8974               102.8504

                     73                     74                     75
                      A                      A                      A
 Frequencies --   1334.2247              1341.0872              1346.8611
 Red. masses --      2.9091                 1.9966                 1.5397
 Frc consts  --      3.0512                 2.1157                 1.6456
 IR Inten    --      6.2485                 5.3025                 1.6846

                     76                     77                     78
                      A                      A                      A
 Frequencies --   1368.1510              1371.1809              1372.9399
 Red. masses --      3.0470                 3.5973                 3.8120
 Frc consts  --      3.3604                 3.9848                 4.2335
 IR Inten    --      7.1204                 4.2032                 9.7481

                     79                     80                     81
                      A                      A                      A
 Frequencies --   1373.9549              1438.4155              1469.0289
 Red. masses --      2.3906                 4.8887                 3.3227
 Frc consts  --      2.6589                 5.9595                 4.2248
 IR Inten    --      1.2308                43.3781                74.7716

                     82                     83                     84
                      A                      A                      A
 Frequencies --   1490.7268              1496.3604              1500.7657
 Red. masses --      2.3787                 2.7162                 2.4880
 Frc consts  --      3.1145                 3.5833                 3.3016
 IR Inten    --     34.1942                19.3961                 7.8733

                     85                     86                     87
                      A                      A                      A
 Frequencies --   1539.6340              1542.8993              1546.8752
 Red. masses --      2.4681                 2.6336                 2.9937
 Frc consts  --      3.4470                 3.6938                 4.2205
 IR Inten    --     61.1612                37.0378                15.2855

                     88                     89                     90
                      A                      A                      A
 Frequencies --   1637.3908              1638.9477              1661.0606
 Red. masses --      5.8016                 5.7262                 6.5698
 Frc consts  --      9.1644                 9.0625                10.6800
 IR Inten    --      2.4537                 1.4637                 4.8728

                     91                     92                     93
                      A                      A                      A
 Frequencies --   1663.3728              1664.2071              1667.1559
 Red. masses --      5.8580                 5.9718                 6.1733
 Frc consts  --      9.5495                 9.7447                10.1093
 IR Inten    --      3.7999                55.3095                12.0847

                     94                     95                     96
                      A                      A                      A
 Frequencies --   3209.8034              3217.8946              3221.4232
 Red. masses --      1.0873                 1.0878                 1.0865
 Frc consts  --      6.6003                 6.6363                 6.6434
 IR Inten    --     14.9697                 1.6593                 0.5096

                     97                     98                     99
                      A                      A                      A
 Frequencies --   3223.6266              3227.1964              3229.3831
 Red. masses --      1.0866                 1.0926                 1.0895
 Frc consts  --      6.6527                 6.7042                 6.6947
 IR Inten    --      1.6840                22.5134                 6.5205

                    100                    101                    102
                      A                      A                      A
 Frequencies --   3229.7863              3237.0338              3237.7859
 Red. masses --      1.0892                 1.0936                 1.0931
 Frc consts  --      6.6941                 6.7518                 6.7515
 IR Inten    --      1.5464                17.9135                10.9804

                    103                    104                    105
                      A                      A                      A
 Frequencies --   3239.7327              3245.6060              3245.6578
 Red. masses --      1.0949                 1.0968                 1.0973
 Frc consts  --      6.7710                 6.8070                 6.8103
 IR Inten    --     20.4311                19.8703                 9.8930

                    106                    107                    108
                      A                      A                      A
 Frequencies --   3247.0776              3251.5648              3252.5716
 Red. masses --      1.0962                 1.0968                 1.0974
 Frc consts  --      6.8094                 6.8322                 6.8404
 IR Inten    --     16.8820                 2.7836                 9.2874

 - Thermochemistry -
 -------------------
 Temperature   298.150 Kelvin.  Pressure   1.00000 Atm.
 Atom     1 has atomic number  6 and mass  12.00000

 Molecular mass:   313.09252 amu.
 Principal axes and moments of inertia in atomic units:
                           1         2         3
     Eigenvalues --  4453.76724********************
           X            1.00000   0.00026  -0.00004
           Y           -0.00026   0.99995  -0.01014
           Z            0.00004   0.01014   0.99995
 This molecule is an asymmetric top.
 Rotational symmetry number  1.
 Warning -- assumption of classical behavior for rotation
           may cause significant error
 Rotational temperatures (Kelvin)      0.01945     0.00736     0.00563
 Rotational constants (GHZ):           0.40522     0.15332     0.11735
 Zero-point vibrational energy     787506.7 (Joules/Mol)
                                  188.21861 (Kcal/Mol)
 Warning -- explicit consideration of  25 degrees of freedom as
           vibrations may cause significant error
 Vibrational temperatures:     41.01    53.73    65.36    74.12    86.27
          (Kelvin)             94.67   139.47   172.77   230.40   313.53
                              333.41   361.77   377.43   439.11   514.21
                              543.99   594.06   596.59   604.79   606.48
                              694.69   717.75   767.74   834.63   849.12
                              900.93   903.50   909.32   914.16   976.92
                              993.50  1019.52  1024.46  1026.59  1030.85
                             1046.25  1126.61  1129.56  1143.96  1236.58
                             1241.90  1245.90  1289.15  1359.04  1366.29
                             1375.73  1405.21  1448.34  1450.76  1456.63
                             1460.81  1465.39  1469.32  1473.39  1474.43
                             1479.70  1485.16  1522.63  1526.85  1534.41
                             1593.61  1598.96  1605.82  1671.23  1700.66
                             1705.74  1709.35  1719.76  1735.27  1744.41
                             1750.43  1799.08  1919.65  1929.52  1937.83
                             1968.46  1972.82  1975.35  1976.81  2069.56
                             2113.60  2144.82  2152.93  2159.26  2215.19
                             2219.89  2225.61  2355.84  2358.08  2389.89
                             2393.22  2394.42  2398.66  4618.19  4629.83
                             4634.90  4638.07  4643.21  4646.36  4646.94
                             4657.36  4658.45  4661.25  4669.70  4669.77
                             4671.81  4678.27  4679.72

 Zero-point correction=                           0.299945 (Hartree/Particle)
 Thermal correction to Energy=                    0.317922
 Thermal correction to Enthalpy=                  0.318866
 Thermal correction to Gibbs Free Energy=         0.251510
 Sum of electronic and zero-point Energies=          -1261.649240
 Sum of electronic and thermal Energies=             -1261.631264
 Sum of electronic and thermal Enthalpies=           -1261.630319
 Sum of electronic and thermal Free Energies=        -1261.697676

                     E (Thermal)             CV                S
                      KCal/Mol        Cal/Mol-Kelvin    Cal/Mol-Kelvin
 Total                  199.499             71.382            141.763
 Electronic               0.000              0.000              0.000
 Translational            0.889              2.981             43.120
 Rotational               0.889              2.981             35.043
 Vibrational            197.721             65.420             63.599
 Vibration     1          0.593              1.984              5.931
 Vibration     2          0.594              1.982              5.395
 Vibration     3          0.595              1.979              5.007
 Vibration     4          0.596              1.977              4.758
 Vibration     5          0.597              1.973              4.458
 Vibration     6          0.597              1.971              4.275
 Vibration     7          0.603              1.951              3.515
 Vibration     8          0.609              1.933              3.099
 Vibration     9          0.622              1.891              2.548
 Vibration    10          0.646              1.814              1.976
 Vibration    11          0.653              1.792              1.865
 Vibration    12          0.663              1.760              1.720
 Vibration    13          0.670              1.742              1.646
 Vibration    14          0.696              1.664              1.388
 Vibration    15          0.733              1.560              1.133
 Vibration    16          0.748              1.517              1.047
 Vibration    17          0.777              1.442              0.916
 Vibration    18          0.778              1.438              0.910
 Vibration    19          0.783              1.426              0.891
 Vibration    20          0.784              1.423              0.887
 Vibration    21          0.839              1.288              0.702
 Vibration    22          0.854              1.253              0.661
 Vibration    23          0.889              1.176              0.579
 Vibration    24          0.937              1.074              0.485
 Vibration    25          0.948              1.053              0.467

 Optimization completed.
    -- Stationary point found.
 Normal termination of Gaussian 09 at Sun Nov 14 23:28:58 2021.
