 Gaussian 09, Revision D.01,
 Gaussian 09:  ES64L-G09RevD.01 24-Apr-2013

 ----------------------------------------------------------
 #p opt freq n12sx/6-311+g(d,p) scrf=(iefpcm,solvent=water)
 ----------------------------------------------------------

 -----
 TITLE
 -----
 Symbolic Z-matrix:
 Charge =  0 Multiplicity = 1

 SCF Done:  E(RN12SX) =  -419.016188532     A.U. after   14 cycles
 SCF Done:  E(RN12SX) =  -419.016188690     A.U. after    6 cycles
 SCF Done:  E(RN12SX) =  -419.016188922     A.U. after    7 cycles
 SCF Done:  E(RN12SX) =  -419.016189106     A.U. after    7 cycles
 SCF Done:  E(RN12SX) =  -419.016189019     A.U. after    6 cycles
 SCF Done:  E(RN12SX) =  -419.016189344     A.U. after    6 cycles
 SCF Done:  E(RN12SX) =  -419.016203504     A.U. after   10 cycles
 SCF Done:  E(RN12SX) =  -419.003182417     A.U. after   12 cycles
 SCF Done:  E(RN12SX) =  -419.016220323     A.U. after    8 cycles
 SCF Done:  E(RN12SX) =  -419.016426900     A.U. after   10 cycles
 SCF Done:  E(RN12SX) =  -419.016647668     A.U. after   10 cycles
 SCF Done:  E(RN12SX) =  -419.016678912     A.U. after    9 cycles
 SCF Done:  E(RN12SX) =  -419.016694062     A.U. after    9 cycles
 SCF Done:  E(RN12SX) =  -419.016712572     A.U. after    9 cycles
 SCF Done:  E(RN12SX) =  -419.016724955     A.U. after    9 cycles
 SCF Done:  E(RN12SX) =  -419.016726639     A.U. after    8 cycles
 SCF Done:  E(RN12SX) =  -419.016729317     A.U. after    8 cycles
 SCF Done:  E(RN12SX) =  -419.016729501     A.U. after    7 cycles
 SCF Done:  E(RN12SX) =  -419.016729507     A.U. after    6 cycles
 Optimization completed on the basis of negligible forces.
    -- Stationary point found.
 Normal termination of Gaussian 09 at Wed Nov 17 23:41:31 2021.

 ----------------------------------------------------------------------
 #P Geom=AllCheck Guess=TCheck SCRF=Check GenChk RN12SX/6-311+G(d,p) Fr
 eq
 ----------------------------------------------------------------------

 Structure from the checkpoint file:  "NHC30.chk"
 -----
 TITLE
 -----
 Charge =  0 Multiplicity = 1

                         Standard orientation:
 ---------------------------------------------------------------------
 Center     Atomic      Atomic             Coordinates (Angstroms)
 Number     Number       Type             X           Y           Z
 ---------------------------------------------------------------------
      1          7           0        1.509828   -0.168254    0.000052
      2          6           0        0.183166   -0.321512    0.000030
      3          7           0       -0.354098    0.944309   -0.000012
      4          6           0        0.629911    1.955689   -0.000014
      5          6           0        1.771006    1.199079    0.000020
      6          6           0       -0.622776   -1.461189    0.000016
      7          6           0       -1.980116   -1.280185    0.000007
      8          6           0       -2.525920    0.021046   -0.000005
      9          6           0       -1.705123    1.105343   -0.000022
     10          6           0        2.477184   -1.241870   -0.000052
     11          1           0        2.797562    1.520831    0.000030
     12          1           0       -0.176243   -2.442189   -0.000006
     13          1           0       -2.636720   -2.135923    0.000001
     14          1           0       -3.593145    0.168677   -0.000009
     15          1           0       -2.046221    2.126554   -0.000041
     16          1           0        2.366088   -1.859867   -0.887554
     17          1           0        3.470007   -0.807551    0.001184
     18          1           0        2.364572   -1.861323    0.886237
 ---------------------------------------------------------------------

 SCF Done:  E(RN12SX) =  -419.016729507     A.U. after    1 cycles

 The electronic state is 1-A.
 Alpha  occ. eigenvalues --  -14.44598 -14.43110 -10.31153 -10.27804 -10.26255
 Alpha  occ. eigenvalues --  -10.24998 -10.24928 -10.24154 -10.23943 -10.20198
 Alpha  occ. eigenvalues --   -1.05744  -0.95484  -0.85057  -0.79224  -0.76090
 Alpha  occ. eigenvalues --   -0.71483  -0.65418  -0.62355  -0.61776  -0.53186
 Alpha  occ. eigenvalues --   -0.50991  -0.49797  -0.49372  -0.47096  -0.46768
 Alpha  occ. eigenvalues --   -0.43664  -0.41377  -0.40785  -0.39172  -0.37678
 Alpha  occ. eigenvalues --   -0.35068  -0.32689  -0.25800  -0.21248  -0.21039
 Alpha virt. eigenvalues --   -0.06258  -0.02113  -0.00537   0.00597   0.01343
 Alpha virt. eigenvalues --    0.02792   0.02843   0.02871   0.02961   0.03802
 Alpha virt. eigenvalues --    0.05563   0.05661   0.06318   0.06549   0.06923

 Mulliken charges:
               1
     1  N   -0.080230
     2  C   -0.255327
     3  N    0.104047
     4  C   -0.570708
     5  C    0.025872
     6  C    0.223339
     7  C   -0.532547
     8  C   -0.219824
     9  C    0.132148
    10  C   -0.247015
    11  H    0.152612
    12  H    0.167838
    13  H    0.176539
    14  H    0.173127
    15  H    0.177950
    16  H    0.194703
    17  H    0.182900
    18  H    0.194576
 Sum of Mulliken charges =   0.00000

 Dipole moment (field-independent basis, Debye):
    X=             -0.3154    Y=             -8.1813    Z=              0.0000  Tot=              8.1874
 Quadrupole moment (field-independent basis, Debye-Ang):
   XX=            -41.1934   YY=            -68.5561   ZZ=            -62.6645
   XY=             -6.8471   XZ=              0.0003   YZ=              0.0001

  Exact polarizability: 204.632  17.141 171.923  -0.004   0.013  86.666
 Approx polarizability: 255.388  22.452 203.457  -0.002   0.000  99.324

                      1                      2                      3
                      A                      A                      A
 Frequencies --     68.2204               147.2850               215.4105
 Red. masses --      1.0519                 3.0383                 4.3544
 Frc consts  --      0.0029                 0.0388                 0.1190
 IR Inten    --      0.1112                 4.6240                 1.0150

                      4                      5                      6
                      A                      A                      A
 Frequencies --    250.8450               275.4904               439.7143
 Red. masses --      3.0051                 4.6235                 2.8966
 Frc consts  --      0.1114                 0.2067                 0.3300
 IR Inten    --      3.4413                 4.5592                16.7506

                      7                      8                      9
                      A                      A                      A
 Frequencies --    496.3086               564.3429               580.9536
 Red. masses --      4.3372                 5.8005                 3.5162
 Frc consts  --      0.6295                 1.0884                 0.6992
 IR Inten    --      5.4249                 6.9643                 6.2015

                     10                     11                     12
                      A                      A                      A
 Frequencies --    596.3509               626.2865               731.3579
 Red. masses --      5.7560                 4.8408                 5.7455
 Frc consts  --      1.2061                 1.1187                 1.8107
 IR Inten    --      4.4279                 4.4572                10.2762

                     13                     14                     15
                      A                      A                      A
 Frequencies --    765.1408               774.0017               799.4233
 Red. masses --      3.8712                 1.3222                 4.9822
 Frc consts  --      1.3353                 0.4667                 1.8760
 IR Inten    --     18.5384               123.5515                 7.4616

                     16                     17                     18
                      A                      A                      A
 Frequencies --    820.6697               871.1775               895.2356
 Red. masses --      1.3491                 1.4520                 6.4383
 Frc consts  --      0.5354                 0.6493                 3.0402
 IR Inten    --     27.6504                 0.0786                 5.6861

                     19                     20                     21
                      A                      A                      A
 Frequencies --    981.0470              1007.9986              1044.0393
 Red. masses --      1.3379                 1.2827                 1.9578
 Frc consts  --      0.7587                 0.7679                 1.2574
 IR Inten    --      1.3531                 0.2648                 7.7901

                     22                     23                     24
                      A                      A                      A
 Frequencies --   1054.2395              1134.1433              1149.5397
 Red. masses --      2.4109                 2.3015                 1.3189
 Frc consts  --      1.5787                 1.7442                 1.0269
 IR Inten    --     49.5845                 5.8945                 0.0111

                     25                     26                     27
                      A                      A                      A
 Frequencies --   1150.5665              1184.2173              1203.9866
 Red. masses --      1.9414                 1.4499                 1.6293
 Frc consts  --      1.5142                 1.1980                 1.3915
 IR Inten    --     24.5299                31.1578                 3.1573

                     28                     29                     30
                      A                      A                      A
 Frequencies --   1233.5509              1292.2669              1357.2801
 Red. masses --      1.6017                 2.0024                 2.3540
 Frc consts  --      1.4360                 1.9702                 2.5551
 IR Inten    --     61.4070                27.8209                31.1950

                     31                     32                     33
                      A                      A                      A
 Frequencies --   1396.1544              1420.6791              1457.3431
 Red. masses --      4.2011                 4.2253                 1.2860
 Frc consts  --      4.8249                 5.0246                 1.6092
 IR Inten    --     30.8116                 0.1467                43.2389

                     34                     35                     36
                      A                      A                      A
 Frequencies --   1483.7247              1487.5342              1504.5544
 Red. masses --      2.2746                 1.0358                 1.9197
 Frc consts  --      2.9502                 1.3504                 2.5604
 IR Inten    --     31.0600                20.4355                 7.7150

                     37                     38                     39
                      A                      A                      A
 Frequencies --   1515.0599              1583.6271              1613.6309
 Red. masses --      1.5003                 5.5541                 5.0365
 Frc consts  --      2.0290                 8.2067                 7.7267
 IR Inten    --     28.1586               173.7096                19.1527

                     40                     41                     42
                      A                      A                      A
 Frequencies --   1707.5253              3089.3736              3162.8372
 Red. masses --      6.8502                 1.0347                 1.1062
 Frc consts  --     11.7676                 5.8186                 6.5201
 IR Inten    --     59.9949                60.0452                16.1286

                     43                     44                     45
                      A                      A                      A
 Frequencies --   3204.4632              3241.8574              3259.1717
 Red. masses --      1.1027                 1.0889                 1.0911
 Frc consts  --      6.6716                 6.7427                 6.8283
 IR Inten    --      4.3027                 1.8497                 1.8931

                     46                     47                     48
                      A                      A                      A
 Frequencies --   3263.5816              3278.7847              3282.3361
 Red. masses --      1.0965                 1.0980                 1.0968
 Frc consts  --      6.8810                 6.9549                 6.9624
 IR Inten    --      1.8210                 3.1242                 3.6937

 - Thermochemistry -
 -------------------
 Temperature   298.150 Kelvin.  Pressure   1.00000 Atm.
 Atom     1 has atomic number  7 and mass  14.00307

 Molecular mass:   132.06875 amu.
 Principal axes and moments of inertia in atomic units:
                           1         2         3
     Eigenvalues --   650.156071323.401071962.23344
           X            0.99944  -0.03341   0.00000
           Y            0.03341   0.99944   0.00000
           Z            0.00000   0.00000   1.00000
 This molecule is an asymmetric top.
 Rotational symmetry number  1.
 Warning -- assumption of classical behavior for rotation
           may cause significant error
 Rotational temperatures (Kelvin)      0.13322     0.06545     0.04414
 Rotational constants (GHZ):           2.77586     1.36371     0.91974
 Zero-point vibrational energy     386772.6 (Joules/Mol)
                                   92.44087 (Kcal/Mol)
 Warning -- explicit consideration of  10 degrees of freedom as
           vibrations may cause significant error
 Vibrational temperatures:     98.15   211.91   309.93   360.91   396.37
          (Kelvin)            632.65   714.08   811.96   835.86   858.01
                              901.09  1052.26  1100.87  1113.61  1150.19
                             1180.76  1253.43  1288.04  1411.51  1450.28
                             1502.14  1516.81  1631.78  1653.93  1655.41
                             1703.82  1732.27  1774.80  1859.28  1952.82
                             2008.75  2044.04  2096.79  2134.75  2140.23
                             2164.72  2179.83  2278.48  2321.65  2456.74
                             4444.91  4550.61  4610.50  4664.30  4689.22
                             4695.56  4717.43  4722.54

 Zero-point correction=                           0.147314 (Hartree/Particle)
 Thermal correction to Energy=                    0.155084
 Thermal correction to Enthalpy=                  0.156028
 Thermal correction to Gibbs Free Energy=         0.114580
 Sum of electronic and zero-point Energies=           -418.869416
 Sum of electronic and thermal Energies=              -418.861645
 Sum of electronic and thermal Enthalpies=            -418.860701
 Sum of electronic and thermal Free Energies=         -418.902150

                     E (Thermal)             CV                S
                      KCal/Mol        Cal/Mol-Kelvin    Cal/Mol-Kelvin
 Total                   97.317             30.229             87.236
 Electronic               0.000              0.000              0.000
 Translational            0.889              2.981             40.547
 Rotational               0.889              2.981             28.914
 Vibrational             95.539             24.267             17.775
 Vibration     1          0.598              1.969              4.204
 Vibration     2          0.617              1.906              2.707
 Vibration     3          0.645              1.818              1.997
 Vibration     4          0.663              1.761              1.725
 Vibration     5          0.677              1.719              1.562
 Vibration     6          0.800              1.384              0.828
 Vibration     7          0.852              1.258              0.667
 Vibration     8          0.920              1.108              0.515
 Vibration     9          0.938              1.073              0.484
 Vibration    10          0.954              1.040              0.456

 Optimization completed on the basis of negligible forces.
    -- Stationary point found.
 Normal termination of Gaussian 09 at Wed Nov 17 23:46:40 2021.
